0.00000  0  0  -1 -1 cwnd_ 1.000 
0.00000  0  0  -1 -1 ssthresh_ 20
0.00000  0  0  -1 -1 ack_ -1
0.00000  0  0  -1 -1 maxseq_ -1
0.00000  0  0  -1 -1 rtt_ 0.000 
0.00000  1  0  -1 -1 cwnd_ 1.000 
0.00000  1  0  -1 -1 ssthresh_ 20
0.00000  1  0  -1 -1 ack_ -1
0.00000  1  0  -1 -1 maxseq_ -1
0.00000  1  0  -1 -1 rtt_ 0.000 
+ 0 0 2 tcp 40 ------- 0 0.0 4.0 0 0
- 0 0 2 tcp 40 ------- 0 0.0 4.0 0 0
0.00000  0  0  4  0  maxseq_ 0
+ 0 1 2 tcp 40 ------- 1 1.0 5.0 0 1
- 0 1 2 tcp 40 ------- 1 1.0 5.0 0 1
0.00000  1  0  5  0  maxseq_ 0
r 0.005003 0 2 tcp 40 ------- 0 0.0 4.0 0 0
+ 0.005003 2 3 tcp 40 ------- 0 0.0 4.0 0 0
- 0.005003 2 3 tcp 40 ------- 0 0.0 4.0 0 0
r 0.009203 2 3 tcp 40 ------- 0 0.0 4.0 0 0
+ 0.009203 3 4 tcp 40 ------- 0 0.0 4.0 0 0
- 0.009203 3 4 tcp 40 ------- 0 0.0 4.0 0 0
r 0.013003 1 2 tcp 40 ------- 1 1.0 5.0 0 1
+ 0.013003 2 3 tcp 40 ------- 1 1.0 5.0 0 1
- 0.013003 2 3 tcp 40 ------- 1 1.0 5.0 0 1
r 0.014206 3 4 tcp 40 ------- 0 0.0 4.0 0 0
+ 0.014206 4 3 ack 40 ------- 0 4.0 0.0 0 2
- 0.014206 4 3 ack 40 ------- 0 4.0 0.0 0 2
r 0.017203 2 3 tcp 40 ------- 1 1.0 5.0 0 1
+ 0.017203 3 5 tcp 40 ------- 1 1.0 5.0 0 1
- 0.017203 3 5 tcp 40 ------- 1 1.0 5.0 0 1
r 0.01921 4 3 ack 40 ------- 0 4.0 0.0 0 2
+ 0.01921 3 2 ack 40 ------- 0 4.0 0.0 0 2
- 0.01921 3 2 ack 40 ------- 0 4.0 0.0 0 2
r 0.02341 3 2 ack 40 ------- 0 4.0 0.0 0 2
+ 0.02341 2 0 ack 40 ------- 0 4.0 0.0 0 2
- 0.02341 2 0 ack 40 ------- 0 4.0 0.0 0 2
r 0.028413 2 0 ack 40 ------- 0 4.0 0.0 0 2
0.02841  0  0  4  0  ack_ 0
0.02841  0  0  4  0  rtt_ 0.020 
0.02841  0  0  4  0  cwnd_ 2.000 
+ 0.028413 0 2 tcp 1000 ------- 0 0.0 4.0 1 3
- 0.028413 0 2 tcp 1000 ------- 0 0.0 4.0 1 3
0.02841  0  0  4  0  maxseq_ 1
+ 0.028413 0 2 tcp 1000 ------- 0 0.0 4.0 2 4
0.02841  0  0  4  0  maxseq_ 2
- 0.028493 0 2 tcp 1000 ------- 0 0.0 4.0 2 4
r 0.033493 0 2 tcp 1000 ------- 0 0.0 4.0 1 3
+ 0.033493 2 3 tcp 1000 ------- 0 0.0 4.0 1 3
- 0.033493 2 3 tcp 1000 ------- 0 0.0 4.0 1 3
r 0.033573 0 2 tcp 1000 ------- 0 0.0 4.0 2 4
+ 0.033573 2 3 tcp 1000 ------- 0 0.0 4.0 2 4
r 0.036206 3 5 tcp 40 ------- 1 1.0 5.0 0 1
+ 0.036206 5 3 ack 40 ------- 1 5.0 1.0 0 5
- 0.036206 5 3 ack 40 ------- 1 5.0 1.0 0 5
r 0.05521 5 3 ack 40 ------- 1 5.0 1.0 0 5
+ 0.05521 3 2 ack 40 ------- 1 5.0 1.0 0 5
- 0.05521 3 2 ack 40 ------- 1 5.0 1.0 0 5
r 0.05941 3 2 ack 40 ------- 1 5.0 1.0 0 5
+ 0.05941 2 1 ack 40 ------- 1 5.0 1.0 0 5
- 0.05941 2 1 ack 40 ------- 1 5.0 1.0 0 5
r 0.072413 2 1 ack 40 ------- 1 5.0 1.0 0 5
0.07241  1  0  5  0  ack_ 0
0.07241  1  0  5  0  rtt_ 0.070 
0.07241  1  0  5  0  cwnd_ 2.000 
+ 0.072413 1 2 tcp 1000 ------- 1 1.0 5.0 1 6
- 0.072413 1 2 tcp 1000 ------- 1 1.0 5.0 1 6
0.07241  1  0  5  0  maxseq_ 1
+ 0.072413 1 2 tcp 1000 ------- 1 1.0 5.0 2 7
0.07241  1  0  5  0  maxseq_ 2
- 0.072493 1 2 tcp 1000 ------- 1 1.0 5.0 2 7
r 0.085493 1 2 tcp 1000 ------- 1 1.0 5.0 1 6
+ 0.085493 2 3 tcp 1000 ------- 1 1.0 5.0 1 6
r 0.085573 1 2 tcp 1000 ------- 1 1.0 5.0 2 7
+ 0.085573 2 3 tcp 1000 ------- 1 1.0 5.0 2 7
- 0.113493 2 3 tcp 1000 ------- 0 0.0 4.0 2 4
r 0.114493 2 3 tcp 1000 ------- 0 0.0 4.0 1 3
+ 0.114493 3 4 tcp 1000 ------- 0 0.0 4.0 1 3
- 0.114493 3 4 tcp 1000 ------- 0 0.0 4.0 1 3
r 0.119573 3 4 tcp 1000 ------- 0 0.0 4.0 1 3
+ 0.119573 4 3 ack 40 ------- 0 4.0 0.0 1 8
- 0.119573 4 3 ack 40 ------- 0 4.0 0.0 1 8
r 0.124576 4 3 ack 40 ------- 0 4.0 0.0 1 8
+ 0.124576 3 2 ack 40 ------- 0 4.0 0.0 1 8
- 0.124576 3 2 ack 40 ------- 0 4.0 0.0 1 8
r 0.128776 3 2 ack 40 ------- 0 4.0 0.0 1 8
+ 0.128776 2 0 ack 40 ------- 0 4.0 0.0 1 8
- 0.128776 2 0 ack 40 ------- 0 4.0 0.0 1 8
r 0.133779 2 0 ack 40 ------- 0 4.0 0.0 1 8
0.13378  0  0  4  0  ack_ 1
0.13378  0  0  4  0  rtt_ 0.110 
0.13378  0  0  4  0  cwnd_ 3.000 
+ 0.133779 0 2 tcp 1000 ------- 0 0.0 4.0 3 9
- 0.133779 0 2 tcp 1000 ------- 0 0.0 4.0 3 9
0.13378  0  0  4  0  maxseq_ 3
+ 0.133779 0 2 tcp 1000 ------- 0 0.0 4.0 4 10
0.13378  0  0  4  0  maxseq_ 4
- 0.133859 0 2 tcp 1000 ------- 0 0.0 4.0 4 10
r 0.138859 0 2 tcp 1000 ------- 0 0.0 4.0 3 9
+ 0.138859 2 3 tcp 1000 ------- 0 0.0 4.0 3 9
r 0.138939 0 2 tcp 1000 ------- 0 0.0 4.0 4 10
+ 0.138939 2 3 tcp 1000 ------- 0 0.0 4.0 4 10
- 0.193493 2 3 tcp 1000 ------- 1 1.0 5.0 1 6
r 0.194493 2 3 tcp 1000 ------- 0 0.0 4.0 2 4
+ 0.194493 3 4 tcp 1000 ------- 0 0.0 4.0 2 4
- 0.194493 3 4 tcp 1000 ------- 0 0.0 4.0 2 4
r 0.199573 3 4 tcp 1000 ------- 0 0.0 4.0 2 4
+ 0.199573 4 3 ack 40 ------- 0 4.0 0.0 2 11
- 0.199573 4 3 ack 40 ------- 0 4.0 0.0 2 11
r 0.204576 4 3 ack 40 ------- 0 4.0 0.0 2 11
+ 0.204576 3 2 ack 40 ------- 0 4.0 0.0 2 11
- 0.204576 3 2 ack 40 ------- 0 4.0 0.0 2 11
r 0.208776 3 2 ack 40 ------- 0 4.0 0.0 2 11
+ 0.208776 2 0 ack 40 ------- 0 4.0 0.0 2 11
- 0.208776 2 0 ack 40 ------- 0 4.0 0.0 2 11
r 0.213779 2 0 ack 40 ------- 0 4.0 0.0 2 11
0.21378  0  0  4  0  ack_ 2
0.21378  0  0  4  0  cwnd_ 4.000 
+ 0.213779 0 2 tcp 1000 ------- 0 0.0 4.0 5 12
- 0.213779 0 2 tcp 1000 ------- 0 0.0 4.0 5 12
0.21378  0  0  4  0  maxseq_ 5
+ 0.213779 0 2 tcp 1000 ------- 0 0.0 4.0 6 13
0.21378  0  0  4  0  maxseq_ 6
- 0.213859 0 2 tcp 1000 ------- 0 0.0 4.0 6 13
r 0.218859 0 2 tcp 1000 ------- 0 0.0 4.0 5 12
+ 0.218859 2 3 tcp 1000 ------- 0 0.0 4.0 5 12
r 0.218939 0 2 tcp 1000 ------- 0 0.0 4.0 6 13
+ 0.218939 2 3 tcp 1000 ------- 0 0.0 4.0 6 13
- 0.273493 2 3 tcp 1000 ------- 1 1.0 5.0 2 7
r 0.274493 2 3 tcp 1000 ------- 1 1.0 5.0 1 6
+ 0.274493 3 5 tcp 1000 ------- 1 1.0 5.0 1 6
- 0.274493 3 5 tcp 1000 ------- 1 1.0 5.0 1 6
0.28241  1  0  5  0  ssthresh_ 1
0.28241  1  0  5  0  cwnd_ 1.000 
0.28241  1  0  5  0  ssthresh_ 2
+ 0.282413 1 2 tcp 1000 ---A--- 1 1.0 5.0 1 14
- 0.282413 1 2 tcp 1000 ---A--- 1 1.0 5.0 1 14
r 0.293573 3 5 tcp 1000 ------- 1 1.0 5.0 1 6
+ 0.293573 5 3 ack 40 ------- 1 5.0 1.0 1 15
- 0.293573 5 3 ack 40 ------- 1 5.0 1.0 1 15
r 0.295493 1 2 tcp 1000 ---A--- 1 1.0 5.0 1 14
+ 0.295493 2 3 tcp 1000 ---A--- 1 1.0 5.0 1 14
r 0.312576 5 3 ack 40 ------- 1 5.0 1.0 1 15
+ 0.312576 3 2 ack 40 ------- 1 5.0 1.0 1 15
- 0.312576 3 2 ack 40 ------- 1 5.0 1.0 1 15
r 0.316776 3 2 ack 40 ------- 1 5.0 1.0 1 15
+ 0.316776 2 1 ack 40 ------- 1 5.0 1.0 1 15
- 0.316776 2 1 ack 40 ------- 1 5.0 1.0 1 15
r 0.329779 2 1 ack 40 ------- 1 5.0 1.0 1 15
0.32978  1  0  5  0  ack_ 1
0.32978  1  0  5  0  cwnd_ 2.000 
+ 0.329779 1 2 tcp 1000 ------- 1 1.0 5.0 2 16
- 0.329779 1 2 tcp 1000 ------- 1 1.0 5.0 2 16
+ 0.329779 1 2 tcp 1000 ------- 1 1.0 5.0 3 17
0.32978  1  0  5  0  maxseq_ 3
- 0.329859 1 2 tcp 1000 ------- 1 1.0 5.0 3 17
r 0.342859 1 2 tcp 1000 ------- 1 1.0 5.0 2 16
+ 0.342859 2 3 tcp 1000 ------- 1 1.0 5.0 2 16
r 0.342939 1 2 tcp 1000 ------- 1 1.0 5.0 3 17
+ 0.342939 2 3 tcp 1000 ------- 1 1.0 5.0 3 17
- 0.353493 2 3 tcp 1000 ------- 0 0.0 4.0 3 9
r 0.354493 2 3 tcp 1000 ------- 1 1.0 5.0 2 7
+ 0.354493 3 5 tcp 1000 ------- 1 1.0 5.0 2 7
- 0.354493 3 5 tcp 1000 ------- 1 1.0 5.0 2 7
r 0.373573 3 5 tcp 1000 ------- 1 1.0 5.0 2 7
+ 0.373573 5 3 ack 40 ------- 1 5.0 1.0 2 18
- 0.373573 5 3 ack 40 ------- 1 5.0 1.0 2 18
r 0.392576 5 3 ack 40 ------- 1 5.0 1.0 2 18
+ 0.392576 3 2 ack 40 ------- 1 5.0 1.0 2 18
- 0.392576 3 2 ack 40 ------- 1 5.0 1.0 2 18
r 0.396776 3 2 ack 40 ------- 1 5.0 1.0 2 18
+ 0.396776 2 1 ack 40 ------- 1 5.0 1.0 2 18
- 0.396776 2 1 ack 40 ------- 1 5.0 1.0 2 18
r 0.409779 2 1 ack 40 ------- 1 5.0 1.0 2 18
0.40978  1  0  5  0  ack_ 2
0.40978  1  0  5  0  cwnd_ 2.500 
+ 0.409779 1 2 tcp 1000 ------- 1 1.0 5.0 4 19
- 0.409779 1 2 tcp 1000 ------- 1 1.0 5.0 4 19
0.40978  1  0  5  0  maxseq_ 4
0.41378  0  0  4  0  ssthresh_ 2
0.41378  0  0  4  0  cwnd_ 1.000 
+ 0.413779 0 2 tcp 1000 ---A--- 0 0.0 4.0 3 20
- 0.413779 0 2 tcp 1000 ---A--- 0 0.0 4.0 3 20
r 0.418859 0 2 tcp 1000 ---A--- 0 0.0 4.0 3 20
+ 0.418859 2 3 tcp 1000 ---A--- 0 0.0 4.0 3 20
r 0.422859 1 2 tcp 1000 ------- 1 1.0 5.0 4 19
+ 0.422859 2 3 tcp 1000 ------- 1 1.0 5.0 4 19
- 0.433493 2 3 tcp 1000 ------- 0 0.0 4.0 4 10
r 0.434493 2 3 tcp 1000 ------- 0 0.0 4.0 3 9
+ 0.434493 3 4 tcp 1000 ------- 0 0.0 4.0 3 9
- 0.434493 3 4 tcp 1000 ------- 0 0.0 4.0 3 9
r 0.439573 3 4 tcp 1000 ------- 0 0.0 4.0 3 9
+ 0.439573 4 3 ack 40 ------- 0 4.0 0.0 3 21
- 0.439573 4 3 ack 40 ------- 0 4.0 0.0 3 21
r 0.444576 4 3 ack 40 ------- 0 4.0 0.0 3 21
+ 0.444576 3 2 ack 40 ------- 0 4.0 0.0 3 21
- 0.444576 3 2 ack 40 ------- 0 4.0 0.0 3 21
r 0.448776 3 2 ack 40 ------- 0 4.0 0.0 3 21
+ 0.448776 2 0 ack 40 ------- 0 4.0 0.0 3 21
- 0.448776 2 0 ack 40 ------- 0 4.0 0.0 3 21
r 0.453779 2 0 ack 40 ------- 0 4.0 0.0 3 21
0.45378  0  0  4  0  ack_ 3
0.45378  0  0  4  0  cwnd_ 2.000 
+ 0.453779 0 2 tcp 1000 ------- 0 0.0 4.0 4 22
- 0.453779 0 2 tcp 1000 ------- 0 0.0 4.0 4 22
+ 0.453779 0 2 tcp 1000 ------- 0 0.0 4.0 5 23
- 0.453859 0 2 tcp 1000 ------- 0 0.0 4.0 5 23
r 0.458859 0 2 tcp 1000 ------- 0 0.0 4.0 4 22
+ 0.458859 2 3 tcp 1000 ------- 0 0.0 4.0 4 22
r 0.458939 0 2 tcp 1000 ------- 0 0.0 4.0 5 23
+ 0.458939 2 3 tcp 1000 ------- 0 0.0 4.0 5 23
- 0.513493 2 3 tcp 1000 ------- 0 0.0 4.0 5 12
r 0.514493 2 3 tcp 1000 ------- 0 0.0 4.0 4 10
+ 0.514493 3 4 tcp 1000 ------- 0 0.0 4.0 4 10
- 0.514493 3 4 tcp 1000 ------- 0 0.0 4.0 4 10
r 0.519573 3 4 tcp 1000 ------- 0 0.0 4.0 4 10
+ 0.519573 4 3 ack 40 ------- 0 4.0 0.0 4 24
- 0.519573 4 3 ack 40 ------- 0 4.0 0.0 4 24
r 0.524576 4 3 ack 40 ------- 0 4.0 0.0 4 24
+ 0.524576 3 2 ack 40 ------- 0 4.0 0.0 4 24
- 0.524576 3 2 ack 40 ------- 0 4.0 0.0 4 24
r 0.528776 3 2 ack 40 ------- 0 4.0 0.0 4 24
+ 0.528776 2 0 ack 40 ------- 0 4.0 0.0 4 24
- 0.528776 2 0 ack 40 ------- 0 4.0 0.0 4 24
r 0.533779 2 0 ack 40 ------- 0 4.0 0.0 4 24
0.53378  0  0  4  0  ack_ 4
0.53378  0  0  4  0  cwnd_ 2.500 
+ 0.533779 0 2 tcp 1000 ------- 0 0.0 4.0 6 25
- 0.533779 0 2 tcp 1000 ------- 0 0.0 4.0 6 25
r 0.538859 0 2 tcp 1000 ------- 0 0.0 4.0 6 25
+ 0.538859 2 3 tcp 1000 ------- 0 0.0 4.0 6 25
- 0.593493 2 3 tcp 1000 ------- 0 0.0 4.0 6 13
r 0.594493 2 3 tcp 1000 ------- 0 0.0 4.0 5 12
+ 0.594493 3 4 tcp 1000 ------- 0 0.0 4.0 5 12
- 0.594493 3 4 tcp 1000 ------- 0 0.0 4.0 5 12
r 0.599573 3 4 tcp 1000 ------- 0 0.0 4.0 5 12
+ 0.599573 4 3 ack 40 ------- 0 4.0 0.0 5 26
- 0.599573 4 3 ack 40 ------- 0 4.0 0.0 5 26
r 0.604576 4 3 ack 40 ------- 0 4.0 0.0 5 26
+ 0.604576 3 2 ack 40 ------- 0 4.0 0.0 5 26
- 0.604576 3 2 ack 40 ------- 0 4.0 0.0 5 26
r 0.608776 3 2 ack 40 ------- 0 4.0 0.0 5 26
+ 0.608776 2 0 ack 40 ------- 0 4.0 0.0 5 26
- 0.608776 2 0 ack 40 ------- 0 4.0 0.0 5 26
r 0.613779 2 0 ack 40 ------- 0 4.0 0.0 5 26
0.61378  0  0  4  0  ack_ 5
0.61378  0  0  4  0  cwnd_ 2.900 
+ 0.613779 0 2 tcp 1000 ------- 0 0.0 4.0 7 27
- 0.613779 0 2 tcp 1000 ------- 0 0.0 4.0 7 27
0.61378  0  0  4  0  maxseq_ 7
r 0.618859 0 2 tcp 1000 ------- 0 0.0 4.0 7 27
+ 0.618859 2 3 tcp 1000 ------- 0 0.0 4.0 7 27
- 0.673493 2 3 tcp 1000 ---A--- 1 1.0 5.0 1 14
r 0.674493 2 3 tcp 1000 ------- 0 0.0 4.0 6 13
+ 0.674493 3 4 tcp 1000 ------- 0 0.0 4.0 6 13
- 0.674493 3 4 tcp 1000 ------- 0 0.0 4.0 6 13
r 0.679573 3 4 tcp 1000 ------- 0 0.0 4.0 6 13
+ 0.679573 4 3 ack 40 ------- 0 4.0 0.0 6 28
- 0.679573 4 3 ack 40 ------- 0 4.0 0.0 6 28
r 0.684576 4 3 ack 40 ------- 0 4.0 0.0 6 28
+ 0.684576 3 2 ack 40 ------- 0 4.0 0.0 6 28
- 0.684576 3 2 ack 40 ------- 0 4.0 0.0 6 28
r 0.688776 3 2 ack 40 ------- 0 4.0 0.0 6 28
+ 0.688776 2 0 ack 40 ------- 0 4.0 0.0 6 28
- 0.688776 2 0 ack 40 ------- 0 4.0 0.0 6 28
r 0.693779 2 0 ack 40 ------- 0 4.0 0.0 6 28
0.69378  0  0  4  0  ack_ 6
0.69378  0  0  4  0  cwnd_ 3.245 
+ 0.693779 0 2 tcp 1000 ------- 0 0.0 4.0 8 29
- 0.693779 0 2 tcp 1000 ------- 0 0.0 4.0 8 29
0.69378  0  0  4  0  maxseq_ 8
+ 0.693779 0 2 tcp 1000 ------- 0 0.0 4.0 9 30
0.69378  0  0  4  0  maxseq_ 9
- 0.693859 0 2 tcp 1000 ------- 0 0.0 4.0 9 30
r 0.698859 0 2 tcp 1000 ------- 0 0.0 4.0 8 29
+ 0.698859 2 3 tcp 1000 ------- 0 0.0 4.0 8 29
r 0.698939 0 2 tcp 1000 ------- 0 0.0 4.0 9 30
+ 0.698939 2 3 tcp 1000 ------- 0 0.0 4.0 9 30
d 0.698939 2 3 tcp 1000 ------- 0 0.0 4.0 9 30
- 0.753493 2 3 tcp 1000 ------- 1 1.0 5.0 2 16
r 0.754493 2 3 tcp 1000 ---A--- 1 1.0 5.0 1 14
+ 0.754493 3 5 tcp 1000 ---A--- 1 1.0 5.0 1 14
- 0.754493 3 5 tcp 1000 ---A--- 1 1.0 5.0 1 14
r 0.773573 3 5 tcp 1000 ---A--- 1 1.0 5.0 1 14
+ 0.773573 5 3 ack 40 ------- 1 5.0 1.0 2 31
- 0.773573 5 3 ack 40 ------- 1 5.0 1.0 2 31
r 0.792576 5 3 ack 40 ------- 1 5.0 1.0 2 31
+ 0.792576 3 2 ack 40 ------- 1 5.0 1.0 2 31
- 0.792576 3 2 ack 40 ------- 1 5.0 1.0 2 31
r 0.796776 3 2 ack 40 ------- 1 5.0 1.0 2 31
+ 0.796776 2 1 ack 40 ------- 1 5.0 1.0 2 31
- 0.796776 2 1 ack 40 ------- 1 5.0 1.0 2 31
r 0.809779 2 1 ack 40 ------- 1 5.0 1.0 2 31
+ 0.809779 1 2 tcp 1000 ------- 1 1.0 5.0 5 32
- 0.809779 1 2 tcp 1000 ------- 1 1.0 5.0 5 32
0.80978  1  0  5  0  maxseq_ 5
r 0.822859 1 2 tcp 1000 ------- 1 1.0 5.0 5 32
+ 0.822859 2 3 tcp 1000 ------- 1 1.0 5.0 5 32
0.82978  1  0  5  0  ssthresh_ 1
0.82978  1  0  5  0  cwnd_ 1.000 
0.82978  1  0  5  0  ssthresh_ 2
+ 0.829779 1 2 tcp 1000 ---A--- 1 1.0 5.0 3 33
- 0.829779 1 2 tcp 1000 ---A--- 1 1.0 5.0 3 33
- 0.833493 2 3 tcp 1000 ------- 1 1.0 5.0 3 17
r 0.834493 2 3 tcp 1000 ------- 1 1.0 5.0 2 16
+ 0.834493 3 5 tcp 1000 ------- 1 1.0 5.0 2 16
- 0.834493 3 5 tcp 1000 ------- 1 1.0 5.0 2 16
r 0.842859 1 2 tcp 1000 ---A--- 1 1.0 5.0 3 33
+ 0.842859 2 3 tcp 1000 ---A--- 1 1.0 5.0 3 33
r 0.853573 3 5 tcp 1000 ------- 1 1.0 5.0 2 16
+ 0.853573 5 3 ack 40 ------- 1 5.0 1.0 2 34
- 0.853573 5 3 ack 40 ------- 1 5.0 1.0 2 34
r 0.872576 5 3 ack 40 ------- 1 5.0 1.0 2 34
+ 0.872576 3 2 ack 40 ------- 1 5.0 1.0 2 34
- 0.872576 3 2 ack 40 ------- 1 5.0 1.0 2 34
r 0.876776 3 2 ack 40 ------- 1 5.0 1.0 2 34
+ 0.876776 2 1 ack 40 ------- 1 5.0 1.0 2 34
- 0.876776 2 1 ack 40 ------- 1 5.0 1.0 2 34
r 0.889779 2 1 ack 40 ------- 1 5.0 1.0 2 34
+ 0.889779 1 2 tcp 1000 ------- 1 1.0 5.0 4 35
- 0.889779 1 2 tcp 1000 ------- 1 1.0 5.0 4 35
r 0.902859 1 2 tcp 1000 ------- 1 1.0 5.0 4 35
+ 0.902859 2 3 tcp 1000 ------- 1 1.0 5.0 4 35
d 0.902859 2 3 tcp 1000 ------- 1 1.0 5.0 4 35
- 0.913493 2 3 tcp 1000 ---A--- 0 0.0 4.0 3 20
r 0.914493 2 3 tcp 1000 ------- 1 1.0 5.0 3 17
+ 0.914493 3 5 tcp 1000 ------- 1 1.0 5.0 3 17
- 0.914493 3 5 tcp 1000 ------- 1 1.0 5.0 3 17
r 0.933573 3 5 tcp 1000 ------- 1 1.0 5.0 3 17
+ 0.933573 5 3 ack 40 ------- 1 5.0 1.0 3 36
- 0.933573 5 3 ack 40 ------- 1 5.0 1.0 3 36
r 0.952576 5 3 ack 40 ------- 1 5.0 1.0 3 36
+ 0.952576 3 2 ack 40 ------- 1 5.0 1.0 3 36
- 0.952576 3 2 ack 40 ------- 1 5.0 1.0 3 36
r 0.956776 3 2 ack 40 ------- 1 5.0 1.0 3 36
+ 0.956776 2 1 ack 40 ------- 1 5.0 1.0 3 36
- 0.956776 2 1 ack 40 ------- 1 5.0 1.0 3 36
r 0.969779 2 1 ack 40 ------- 1 5.0 1.0 3 36
0.96978  1  0  5  0  ack_ 3
0.96978  1  0  5  0  cwnd_ 2.000 
+ 0.969779 1 2 tcp 1000 ------- 1 1.0 5.0 5 37
- 0.969779 1 2 tcp 1000 ------- 1 1.0 5.0 5 37
r 0.982859 1 2 tcp 1000 ------- 1 1.0 5.0 5 37
+ 0.982859 2 3 tcp 1000 ------- 1 1.0 5.0 5 37
- 0.993493 2 3 tcp 1000 ------- 1 1.0 5.0 4 19
r 0.994493 2 3 tcp 1000 ---A--- 0 0.0 4.0 3 20
+ 0.994493 3 4 tcp 1000 ---A--- 0 0.0 4.0 3 20
- 0.994493 3 4 tcp 1000 ---A--- 0 0.0 4.0 3 20
r 0.999573 3 4 tcp 1000 ---A--- 0 0.0 4.0 3 20
+ 0.999573 4 3 ack 40 ------- 0 4.0 0.0 6 38
- 0.999573 4 3 ack 40 ------- 0 4.0 0.0 6 38
r 1.004576 4 3 ack 40 ------- 0 4.0 0.0 6 38
+ 1.004576 3 2 ack 40 ------- 0 4.0 0.0 6 38
- 1.004576 3 2 ack 40 ------- 0 4.0 0.0 6 38
r 1.008776 3 2 ack 40 ------- 0 4.0 0.0 6 38
+ 1.008776 2 0 ack 40 ------- 0 4.0 0.0 6 38
- 1.008776 2 0 ack 40 ------- 0 4.0 0.0 6 38
r 1.013779 2 0 ack 40 ------- 0 4.0 0.0 6 38
+ 1.013779 0 2 tcp 1000 ------- 0 0.0 4.0 10 39
- 1.013779 0 2 tcp 1000 ------- 0 0.0 4.0 10 39
1.01378  0  0  4  0  maxseq_ 10
r 1.018859 0 2 tcp 1000 ------- 0 0.0 4.0 10 39
+ 1.018859 2 3 tcp 1000 ------- 0 0.0 4.0 10 39
- 1.073493 2 3 tcp 1000 ------- 0 0.0 4.0 4 22
r 1.074493 2 3 tcp 1000 ------- 1 1.0 5.0 4 19
+ 1.074493 3 5 tcp 1000 ------- 1 1.0 5.0 4 19
- 1.074493 3 5 tcp 1000 ------- 1 1.0 5.0 4 19
r 1.093573 3 5 tcp 1000 ------- 1 1.0 5.0 4 19
+ 1.093573 5 3 ack 40 ------- 1 5.0 1.0 4 40
- 1.093573 5 3 ack 40 ------- 1 5.0 1.0 4 40
1.09378  0  0  4  0  ssthresh_ 1
1.09378  0  0  4  0  cwnd_ 1.000 
1.09378  0  0  4  0  ssthresh_ 2
+ 1.093779 0 2 tcp 1000 ---A--- 0 0.0 4.0 7 41
- 1.093779 0 2 tcp 1000 ---A--- 0 0.0 4.0 7 41
r 1.098859 0 2 tcp 1000 ---A--- 0 0.0 4.0 7 41
+ 1.098859 2 3 tcp 1000 ---A--- 0 0.0 4.0 7 41
r 1.112576 5 3 ack 40 ------- 1 5.0 1.0 4 40
+ 1.112576 3 2 ack 40 ------- 1 5.0 1.0 4 40
- 1.112576 3 2 ack 40 ------- 1 5.0 1.0 4 40
r 1.116776 3 2 ack 40 ------- 1 5.0 1.0 4 40
+ 1.116776 2 1 ack 40 ------- 1 5.0 1.0 4 40
- 1.116776 2 1 ack 40 ------- 1 5.0 1.0 4 40
r 1.129779 2 1 ack 40 ------- 1 5.0 1.0 4 40
1.12978  1  0  5  0  ack_ 4
1.12978  1  0  5  0  cwnd_ 2.500 
+ 1.129779 1 2 tcp 1000 ------- 1 1.0 5.0 6 42
- 1.129779 1 2 tcp 1000 ------- 1 1.0 5.0 6 42
1.12978  1  0  5  0  maxseq_ 6
r 1.142859 1 2 tcp 1000 ------- 1 1.0 5.0 6 42
+ 1.142859 2 3 tcp 1000 ------- 1 1.0 5.0 6 42
d 1.142859 2 3 tcp 1000 ------- 1 1.0 5.0 6 42
- 1.153493 2 3 tcp 1000 ------- 0 0.0 4.0 5 23
r 1.154493 2 3 tcp 1000 ------- 0 0.0 4.0 4 22
+ 1.154493 3 4 tcp 1000 ------- 0 0.0 4.0 4 22
- 1.154493 3 4 tcp 1000 ------- 0 0.0 4.0 4 22
r 1.159573 3 4 tcp 1000 ------- 0 0.0 4.0 4 22
+ 1.159573 4 3 ack 40 ------- 0 4.0 0.0 6 43
- 1.159573 4 3 ack 40 ------- 0 4.0 0.0 6 43
r 1.164576 4 3 ack 40 ------- 0 4.0 0.0 6 43
+ 1.164576 3 2 ack 40 ------- 0 4.0 0.0 6 43
- 1.164576 3 2 ack 40 ------- 0 4.0 0.0 6 43
r 1.168776 3 2 ack 40 ------- 0 4.0 0.0 6 43
+ 1.168776 2 0 ack 40 ------- 0 4.0 0.0 6 43
- 1.168776 2 0 ack 40 ------- 0 4.0 0.0 6 43
r 1.173779 2 0 ack 40 ------- 0 4.0 0.0 6 43
+ 1.173779 0 2 tcp 1000 ------- 0 0.0 4.0 8 44
- 1.173779 0 2 tcp 1000 ------- 0 0.0 4.0 8 44
r 1.178859 0 2 tcp 1000 ------- 0 0.0 4.0 8 44
+ 1.178859 2 3 tcp 1000 ------- 0 0.0 4.0 8 44
- 1.233493 2 3 tcp 1000 ------- 0 0.0 4.0 6 25
r 1.234493 2 3 tcp 1000 ------- 0 0.0 4.0 5 23
+ 1.234493 3 4 tcp 1000 ------- 0 0.0 4.0 5 23
- 1.234493 3 4 tcp 1000 ------- 0 0.0 4.0 5 23
r 1.239573 3 4 tcp 1000 ------- 0 0.0 4.0 5 23
+ 1.239573 4 3 ack 40 ------- 0 4.0 0.0 6 45
- 1.239573 4 3 ack 40 ------- 0 4.0 0.0 6 45
r 1.244576 4 3 ack 40 ------- 0 4.0 0.0 6 45
+ 1.244576 3 2 ack 40 ------- 0 4.0 0.0 6 45
- 1.244576 3 2 ack 40 ------- 0 4.0 0.0 6 45
r 1.248776 3 2 ack 40 ------- 0 4.0 0.0 6 45
+ 1.248776 2 0 ack 40 ------- 0 4.0 0.0 6 45
- 1.248776 2 0 ack 40 ------- 0 4.0 0.0 6 45
r 1.253779 2 0 ack 40 ------- 0 4.0 0.0 6 45
+ 1.253779 0 2 tcp 1000 ------- 0 0.0 4.0 9 46
- 1.253779 0 2 tcp 1000 ------- 0 0.0 4.0 9 46
r 1.258859 0 2 tcp 1000 ------- 0 0.0 4.0 9 46
+ 1.258859 2 3 tcp 1000 ------- 0 0.0 4.0 9 46
- 1.313493 2 3 tcp 1000 ------- 0 0.0 4.0 7 27
r 1.314493 2 3 tcp 1000 ------- 0 0.0 4.0 6 25
+ 1.314493 3 4 tcp 1000 ------- 0 0.0 4.0 6 25
- 1.314493 3 4 tcp 1000 ------- 0 0.0 4.0 6 25
r 1.319573 3 4 tcp 1000 ------- 0 0.0 4.0 6 25
+ 1.319573 4 3 ack 40 ------- 0 4.0 0.0 6 47
- 1.319573 4 3 ack 40 ------- 0 4.0 0.0 6 47
r 1.324576 4 3 ack 40 ------- 0 4.0 0.0 6 47
+ 1.324576 3 2 ack 40 ------- 0 4.0 0.0 6 47
- 1.324576 3 2 ack 40 ------- 0 4.0 0.0 6 47
r 1.328776 3 2 ack 40 ------- 0 4.0 0.0 6 47
+ 1.328776 2 0 ack 40 ------- 0 4.0 0.0 6 47
- 1.328776 2 0 ack 40 ------- 0 4.0 0.0 6 47
r 1.333779 2 0 ack 40 ------- 0 4.0 0.0 6 47
- 1.393493 2 3 tcp 1000 ------- 0 0.0 4.0 8 29
r 1.394493 2 3 tcp 1000 ------- 0 0.0 4.0 7 27
+ 1.394493 3 4 tcp 1000 ------- 0 0.0 4.0 7 27
- 1.394493 3 4 tcp 1000 ------- 0 0.0 4.0 7 27
r 1.399573 3 4 tcp 1000 ------- 0 0.0 4.0 7 27
+ 1.399573 4 3 ack 40 ------- 0 4.0 0.0 7 48
- 1.399573 4 3 ack 40 ------- 0 4.0 0.0 7 48
r 1.404576 4 3 ack 40 ------- 0 4.0 0.0 7 48
+ 1.404576 3 2 ack 40 ------- 0 4.0 0.0 7 48
- 1.404576 3 2 ack 40 ------- 0 4.0 0.0 7 48
r 1.408776 3 2 ack 40 ------- 0 4.0 0.0 7 48
+ 1.408776 2 0 ack 40 ------- 0 4.0 0.0 7 48
- 1.408776 2 0 ack 40 ------- 0 4.0 0.0 7 48
r 1.413779 2 0 ack 40 ------- 0 4.0 0.0 7 48
1.41378  0  0  4  0  ack_ 7
1.41378  0  0  4  0  cwnd_ 2.000 
- 1.473493 2 3 tcp 1000 ------- 1 1.0 5.0 5 32
r 1.474493 2 3 tcp 1000 ------- 0 0.0 4.0 8 29
+ 1.474493 3 4 tcp 1000 ------- 0 0.0 4.0 8 29
- 1.474493 3 4 tcp 1000 ------- 0 0.0 4.0 8 29
r 1.479573 3 4 tcp 1000 ------- 0 0.0 4.0 8 29
+ 1.479573 4 3 ack 40 ------- 0 4.0 0.0 8 49
- 1.479573 4 3 ack 40 ------- 0 4.0 0.0 8 49
r 1.484576 4 3 ack 40 ------- 0 4.0 0.0 8 49
+ 1.484576 3 2 ack 40 ------- 0 4.0 0.0 8 49
- 1.484576 3 2 ack 40 ------- 0 4.0 0.0 8 49
r 1.488776 3 2 ack 40 ------- 0 4.0 0.0 8 49
+ 1.488776 2 0 ack 40 ------- 0 4.0 0.0 8 49
- 1.488776 2 0 ack 40 ------- 0 4.0 0.0 8 49
r 1.493779 2 0 ack 40 ------- 0 4.0 0.0 8 49
1.49378  0  0  4  0  ack_ 8
1.49378  0  0  4  0  cwnd_ 2.500 
+ 1.493779 0 2 tcp 1000 ------- 0 0.0 4.0 10 50
- 1.493779 0 2 tcp 1000 ------- 0 0.0 4.0 10 50
r 1.498859 0 2 tcp 1000 ------- 0 0.0 4.0 10 50
+ 1.498859 2 3 tcp 1000 ------- 0 0.0 4.0 10 50
- 1.553493 2 3 tcp 1000 ---A--- 1 1.0 5.0 3 33
r 1.554493 2 3 tcp 1000 ------- 1 1.0 5.0 5 32
+ 1.554493 3 5 tcp 1000 ------- 1 1.0 5.0 5 32
- 1.554493 3 5 tcp 1000 ------- 1 1.0 5.0 5 32
r 1.573573 3 5 tcp 1000 ------- 1 1.0 5.0 5 32
+ 1.573573 5 3 ack 40 ------- 1 5.0 1.0 5 51
- 1.573573 5 3 ack 40 ------- 1 5.0 1.0 5 51
r 1.592576 5 3 ack 40 ------- 1 5.0 1.0 5 51
+ 1.592576 3 2 ack 40 ------- 1 5.0 1.0 5 51
- 1.592576 3 2 ack 40 ------- 1 5.0 1.0 5 51
r 1.596776 3 2 ack 40 ------- 1 5.0 1.0 5 51
+ 1.596776 2 1 ack 40 ------- 1 5.0 1.0 5 51
- 1.596776 2 1 ack 40 ------- 1 5.0 1.0 5 51
r 1.609779 2 1 ack 40 ------- 1 5.0 1.0 5 51
1.60978  1  0  5  0  ack_ 5
1.60978  1  0  5  0  cwnd_ 2.900 
+ 1.609779 1 2 tcp 1000 ------- 1 1.0 5.0 7 52
- 1.609779 1 2 tcp 1000 ------- 1 1.0 5.0 7 52
1.60978  1  0  5  0  maxseq_ 7
r 1.622859 1 2 tcp 1000 ------- 1 1.0 5.0 7 52
+ 1.622859 2 3 tcp 1000 ------- 1 1.0 5.0 7 52
- 1.633493 2 3 tcp 1000 ------- 1 1.0 5.0 5 37
r 1.634493 2 3 tcp 1000 ---A--- 1 1.0 5.0 3 33
+ 1.634493 3 5 tcp 1000 ---A--- 1 1.0 5.0 3 33
- 1.634493 3 5 tcp 1000 ---A--- 1 1.0 5.0 3 33
r 1.653573 3 5 tcp 1000 ---A--- 1 1.0 5.0 3 33
+ 1.653573 5 3 ack 40 ------- 1 5.0 1.0 5 53
- 1.653573 5 3 ack 40 ------- 1 5.0 1.0 5 53
r 1.672576 5 3 ack 40 ------- 1 5.0 1.0 5 53
+ 1.672576 3 2 ack 40 ------- 1 5.0 1.0 5 53
- 1.672576 3 2 ack 40 ------- 1 5.0 1.0 5 53
r 1.676776 3 2 ack 40 ------- 1 5.0 1.0 5 53
+ 1.676776 2 1 ack 40 ------- 1 5.0 1.0 5 53
- 1.676776 2 1 ack 40 ------- 1 5.0 1.0 5 53
r 1.689779 2 1 ack 40 ------- 1 5.0 1.0 5 53
+ 1.689779 1 2 tcp 1000 ------- 1 1.0 5.0 8 54
- 1.689779 1 2 tcp 1000 ------- 1 1.0 5.0 8 54
1.68978  1  0  5  0  maxseq_ 8
r 1.702859 1 2 tcp 1000 ------- 1 1.0 5.0 8 54
+ 1.702859 2 3 tcp 1000 ------- 1 1.0 5.0 8 54
- 1.713493 2 3 tcp 1000 ------- 0 0.0 4.0 10 39
r 1.714493 2 3 tcp 1000 ------- 1 1.0 5.0 5 37
+ 1.714493 3 5 tcp 1000 ------- 1 1.0 5.0 5 37
- 1.714493 3 5 tcp 1000 ------- 1 1.0 5.0 5 37
r 1.733573 3 5 tcp 1000 ------- 1 1.0 5.0 5 37
+ 1.733573 5 3 ack 40 ------- 1 5.0 1.0 5 55
- 1.733573 5 3 ack 40 ------- 1 5.0 1.0 5 55
r 1.752576 5 3 ack 40 ------- 1 5.0 1.0 5 55
+ 1.752576 3 2 ack 40 ------- 1 5.0 1.0 5 55
- 1.752576 3 2 ack 40 ------- 1 5.0 1.0 5 55
r 1.756776 3 2 ack 40 ------- 1 5.0 1.0 5 55
+ 1.756776 2 1 ack 40 ------- 1 5.0 1.0 5 55
- 1.756776 2 1 ack 40 ------- 1 5.0 1.0 5 55
r 1.769779 2 1 ack 40 ------- 1 5.0 1.0 5 55
+ 1.769779 1 2 tcp 1000 ------- 1 1.0 5.0 9 56
- 1.769779 1 2 tcp 1000 ------- 1 1.0 5.0 9 56
1.76978  1  0  5  0  maxseq_ 9
r 1.782859 1 2 tcp 1000 ------- 1 1.0 5.0 9 56
+ 1.782859 2 3 tcp 1000 ------- 1 1.0 5.0 9 56
- 1.793493 2 3 tcp 1000 ---A--- 0 0.0 4.0 7 41
r 1.794493 2 3 tcp 1000 ------- 0 0.0 4.0 10 39
+ 1.794493 3 4 tcp 1000 ------- 0 0.0 4.0 10 39
- 1.794493 3 4 tcp 1000 ------- 0 0.0 4.0 10 39
r 1.799573 3 4 tcp 1000 ------- 0 0.0 4.0 10 39
+ 1.799573 4 3 ack 40 ------- 0 4.0 0.0 8 57
- 1.799573 4 3 ack 40 ------- 0 4.0 0.0 8 57
r 1.804576 4 3 ack 40 ------- 0 4.0 0.0 8 57
+ 1.804576 3 2 ack 40 ------- 0 4.0 0.0 8 57
- 1.804576 3 2 ack 40 ------- 0 4.0 0.0 8 57
r 1.808776 3 2 ack 40 ------- 0 4.0 0.0 8 57
+ 1.808776 2 0 ack 40 ------- 0 4.0 0.0 8 57
- 1.808776 2 0 ack 40 ------- 0 4.0 0.0 8 57
r 1.813779 2 0 ack 40 ------- 0 4.0 0.0 8 57
+ 1.813779 0 2 tcp 1000 ------- 0 0.0 4.0 11 58
- 1.813779 0 2 tcp 1000 ------- 0 0.0 4.0 11 58
1.81378  0  0  4  0  maxseq_ 11
r 1.818859 0 2 tcp 1000 ------- 0 0.0 4.0 11 58
+ 1.818859 2 3 tcp 1000 ------- 0 0.0 4.0 11 58
- 1.873493 2 3 tcp 1000 ------- 0 0.0 4.0 8 44
r 1.874493 2 3 tcp 1000 ---A--- 0 0.0 4.0 7 41
+ 1.874493 3 4 tcp 1000 ---A--- 0 0.0 4.0 7 41
- 1.874493 3 4 tcp 1000 ---A--- 0 0.0 4.0 7 41
r 1.879573 3 4 tcp 1000 ---A--- 0 0.0 4.0 7 41
+ 1.879573 4 3 ack 40 ------- 0 4.0 0.0 8 59
- 1.879573 4 3 ack 40 ------- 0 4.0 0.0 8 59
r 1.884576 4 3 ack 40 ------- 0 4.0 0.0 8 59
+ 1.884576 3 2 ack 40 ------- 0 4.0 0.0 8 59
- 1.884576 3 2 ack 40 ------- 0 4.0 0.0 8 59
r 1.888776 3 2 ack 40 ------- 0 4.0 0.0 8 59
+ 1.888776 2 0 ack 40 ------- 0 4.0 0.0 8 59
- 1.888776 2 0 ack 40 ------- 0 4.0 0.0 8 59
r 1.893779 2 0 ack 40 ------- 0 4.0 0.0 8 59
+ 1.893779 0 2 tcp 1000 ------- 0 0.0 4.0 12 60
- 1.893779 0 2 tcp 1000 ------- 0 0.0 4.0 12 60
1.89378  0  0  4  0  maxseq_ 12
r 1.898859 0 2 tcp 1000 ------- 0 0.0 4.0 12 60
+ 1.898859 2 3 tcp 1000 ------- 0 0.0 4.0 12 60
- 1.953493 2 3 tcp 1000 ------- 0 0.0 4.0 9 46
r 1.954493 2 3 tcp 1000 ------- 0 0.0 4.0 8 44
+ 1.954493 3 4 tcp 1000 ------- 0 0.0 4.0 8 44
- 1.954493 3 4 tcp 1000 ------- 0 0.0 4.0 8 44
r 1.959573 3 4 tcp 1000 ------- 0 0.0 4.0 8 44
+ 1.959573 4 3 ack 40 ------- 0 4.0 0.0 8 61
- 1.959573 4 3 ack 40 ------- 0 4.0 0.0 8 61
r 1.964576 4 3 ack 40 ------- 0 4.0 0.0 8 61
+ 1.964576 3 2 ack 40 ------- 0 4.0 0.0 8 61
- 1.964576 3 2 ack 40 ------- 0 4.0 0.0 8 61
r 1.968776 3 2 ack 40 ------- 0 4.0 0.0 8 61
+ 1.968776 2 0 ack 40 ------- 0 4.0 0.0 8 61
- 1.968776 2 0 ack 40 ------- 0 4.0 0.0 8 61
r 1.973779 2 0 ack 40 ------- 0 4.0 0.0 8 61
- 2.033493 2 3 tcp 1000 ------- 0 0.0 4.0 10 50
r 2.034493 2 3 tcp 1000 ------- 0 0.0 4.0 9 46
+ 2.034493 3 4 tcp 1000 ------- 0 0.0 4.0 9 46
- 2.034493 3 4 tcp 1000 ------- 0 0.0 4.0 9 46
r 2.039573 3 4 tcp 1000 ------- 0 0.0 4.0 9 46
+ 2.039573 4 3 ack 40 ------- 0 4.0 0.0 10 62
- 2.039573 4 3 ack 40 ------- 0 4.0 0.0 10 62
r 2.044576 4 3 ack 40 ------- 0 4.0 0.0 10 62
+ 2.044576 3 2 ack 40 ------- 0 4.0 0.0 10 62
- 2.044576 3 2 ack 40 ------- 0 4.0 0.0 10 62
r 2.048776 3 2 ack 40 ------- 0 4.0 0.0 10 62
+ 2.048776 2 0 ack 40 ------- 0 4.0 0.0 10 62
- 2.048776 2 0 ack 40 ------- 0 4.0 0.0 10 62
r 2.053779 2 0 ack 40 ------- 0 4.0 0.0 10 62
2.05378  0  0  4  0  ack_ 10
2.05378  0  0  4  0  cwnd_ 2.900 
- 2.113493 2 3 tcp 1000 ------- 1 1.0 5.0 7 52
r 2.114493 2 3 tcp 1000 ------- 0 0.0 4.0 10 50
+ 2.114493 3 4 tcp 1000 ------- 0 0.0 4.0 10 50
- 2.114493 3 4 tcp 1000 ------- 0 0.0 4.0 10 50
r 2.119573 3 4 tcp 1000 ------- 0 0.0 4.0 10 50
+ 2.119573 4 3 ack 40 ------- 0 4.0 0.0 10 63
- 2.119573 4 3 ack 40 ------- 0 4.0 0.0 10 63
r 2.124576 4 3 ack 40 ------- 0 4.0 0.0 10 63
+ 2.124576 3 2 ack 40 ------- 0 4.0 0.0 10 63
- 2.124576 3 2 ack 40 ------- 0 4.0 0.0 10 63
r 2.128776 3 2 ack 40 ------- 0 4.0 0.0 10 63
+ 2.128776 2 0 ack 40 ------- 0 4.0 0.0 10 63
- 2.128776 2 0 ack 40 ------- 0 4.0 0.0 10 63
r 2.133779 2 0 ack 40 ------- 0 4.0 0.0 10 63
+ 2.133779 0 2 tcp 1000 ------- 0 0.0 4.0 13 64
- 2.133779 0 2 tcp 1000 ------- 0 0.0 4.0 13 64
2.13378  0  0  4  0  maxseq_ 13
r 2.138859 0 2 tcp 1000 ------- 0 0.0 4.0 13 64
+ 2.138859 2 3 tcp 1000 ------- 0 0.0 4.0 13 64
- 2.193493 2 3 tcp 1000 ------- 1 1.0 5.0 8 54
r 2.194493 2 3 tcp 1000 ------- 1 1.0 5.0 7 52
+ 2.194493 3 5 tcp 1000 ------- 1 1.0 5.0 7 52
- 2.194493 3 5 tcp 1000 ------- 1 1.0 5.0 7 52
r 2.213573 3 5 tcp 1000 ------- 1 1.0 5.0 7 52
+ 2.213573 5 3 ack 40 ------- 1 5.0 1.0 5 65
- 2.213573 5 3 ack 40 ------- 1 5.0 1.0 5 65
r 2.232576 5 3 ack 40 ------- 1 5.0 1.0 5 65
+ 2.232576 3 2 ack 40 ------- 1 5.0 1.0 5 65
- 2.232576 3 2 ack 40 ------- 1 5.0 1.0 5 65
r 2.236776 3 2 ack 40 ------- 1 5.0 1.0 5 65
+ 2.236776 2 1 ack 40 ------- 1 5.0 1.0 5 65
- 2.236776 2 1 ack 40 ------- 1 5.0 1.0 5 65
r 2.249779 2 1 ack 40 ------- 1 5.0 1.0 5 65
- 2.273493 2 3 tcp 1000 ------- 1 1.0 5.0 9 56
r 2.274493 2 3 tcp 1000 ------- 1 1.0 5.0 8 54
+ 2.274493 3 5 tcp 1000 ------- 1 1.0 5.0 8 54
- 2.274493 3 5 tcp 1000 ------- 1 1.0 5.0 8 54
r 2.293573 3 5 tcp 1000 ------- 1 1.0 5.0 8 54
+ 2.293573 5 3 ack 40 ------- 1 5.0 1.0 5 66
- 2.293573 5 3 ack 40 ------- 1 5.0 1.0 5 66
r 2.312576 5 3 ack 40 ------- 1 5.0 1.0 5 66
+ 2.312576 3 2 ack 40 ------- 1 5.0 1.0 5 66
- 2.312576 3 2 ack 40 ------- 1 5.0 1.0 5 66
r 2.316776 3 2 ack 40 ------- 1 5.0 1.0 5 66
+ 2.316776 2 1 ack 40 ------- 1 5.0 1.0 5 66
- 2.316776 2 1 ack 40 ------- 1 5.0 1.0 5 66
r 2.329779 2 1 ack 40 ------- 1 5.0 1.0 5 66
- 2.353493 2 3 tcp 1000 ------- 0 0.0 4.0 11 58
r 2.354493 2 3 tcp 1000 ------- 1 1.0 5.0 9 56
+ 2.354493 3 5 tcp 1000 ------- 1 1.0 5.0 9 56
- 2.354493 3 5 tcp 1000 ------- 1 1.0 5.0 9 56
r 2.373573 3 5 tcp 1000 ------- 1 1.0 5.0 9 56
+ 2.373573 5 3 ack 40 ------- 1 5.0 1.0 5 67
- 2.373573 5 3 ack 40 ------- 1 5.0 1.0 5 67
r 2.392576 5 3 ack 40 ------- 1 5.0 1.0 5 67
+ 2.392576 3 2 ack 40 ------- 1 5.0 1.0 5 67
- 2.392576 3 2 ack 40 ------- 1 5.0 1.0 5 67
r 2.396776 3 2 ack 40 ------- 1 5.0 1.0 5 67
+ 2.396776 2 1 ack 40 ------- 1 5.0 1.0 5 67
- 2.396776 2 1 ack 40 ------- 1 5.0 1.0 5 67
r 2.409779 2 1 ack 40 ------- 1 5.0 1.0 5 67
- 2.433493 2 3 tcp 1000 ------- 0 0.0 4.0 12 60
r 2.434493 2 3 tcp 1000 ------- 0 0.0 4.0 11 58
+ 2.434493 3 4 tcp 1000 ------- 0 0.0 4.0 11 58
- 2.434493 3 4 tcp 1000 ------- 0 0.0 4.0 11 58
r 2.439573 3 4 tcp 1000 ------- 0 0.0 4.0 11 58
+ 2.439573 4 3 ack 40 ------- 0 4.0 0.0 11 68
- 2.439573 4 3 ack 40 ------- 0 4.0 0.0 11 68
r 2.444576 4 3 ack 40 ------- 0 4.0 0.0 11 68
+ 2.444576 3 2 ack 40 ------- 0 4.0 0.0 11 68
- 2.444576 3 2 ack 40 ------- 0 4.0 0.0 11 68
r 2.448776 3 2 ack 40 ------- 0 4.0 0.0 11 68
+ 2.448776 2 0 ack 40 ------- 0 4.0 0.0 11 68