0.00000  0  0  -1 -1 cwnd_ 1.000 
0.00000  0  0  -1 -1 ssthresh_ 20
0.00000  0  0  -1 -1 ack_ -1
0.00000  0  0  -1 -1 maxseq_ -1
0.00000  1  0  -1 -1 cwnd_ 1.000 
0.00000  1  0  -1 -1 ssthresh_ 20
0.00000  1  0  -1 -1 ack_ -1
0.00000  1  0  -1 -1 maxseq_ -1
+ 0 0 2 tcp 40 ------- 0 0.0 4.0 0 0
- 0 0 2 tcp 40 ------- 0 0.0 4.0 0 0
0.00000  0  0  4  0  maxseq_ 0
+ 0 1 2 tcp 40 ------- 0 1.0 5.0 0 1
- 0 1 2 tcp 40 ------- 0 1.0 5.0 0 1
0.00000  1  0  5  0  maxseq_ 0
r 0.005003 0 2 tcp 40 ------- 0 0.0 4.0 0 0
+ 0.005003 2 3 tcp 40 ------- 0 0.0 4.0 0 0
- 0.005003 2 3 tcp 40 ------- 0 0.0 4.0 0 0
r 0.009203 2 3 tcp 40 ------- 0 0.0 4.0 0 0
+ 0.009203 3 4 tcp 40 ------- 0 0.0 4.0 0 0
- 0.009203 3 4 tcp 40 ------- 0 0.0 4.0 0 0
r 0.014206 3 4 tcp 40 ------- 0 0.0 4.0 0 0
+ 0.014206 4 3 ack 40 ------- 0 4.0 0.0 0 2
- 0.014206 4 3 ack 40 ------- 0 4.0 0.0 0 2
r 0.01921 4 3 ack 40 ------- 0 4.0 0.0 0 2
+ 0.01921 3 2 ack 40 ------- 0 4.0 0.0 0 2
- 0.01921 3 2 ack 40 ------- 0 4.0 0.0 0 2
r 0.02341 3 2 ack 40 ------- 0 4.0 0.0 0 2
+ 0.02341 2 0 ack 40 ------- 0 4.0 0.0 0 2
- 0.02341 2 0 ack 40 ------- 0 4.0 0.0 0 2
r 0.028413 2 0 ack 40 ------- 0 4.0 0.0 0 2
0.02841  0  0  4  0  ack_ 0
0.02841  0  0  4  0  cwnd_ 2.000 
+ 0.028413 0 2 tcp 1000 ------- 0 0.0 4.0 1 3
- 0.028413 0 2 tcp 1000 ------- 0 0.0 4.0 1 3
0.02841  0  0  4  0  maxseq_ 1
+ 0.028413 0 2 tcp 1000 ------- 0 0.0 4.0 2 4
0.02841  0  0  4  0  maxseq_ 2
- 0.028493 0 2 tcp 1000 ------- 0 0.0 4.0 2 4
r 0.033493 0 2 tcp 1000 ------- 0 0.0 4.0 1 3
+ 0.033493 2 3 tcp 1000 ------- 0 0.0 4.0 1 3
- 0.033493 2 3 tcp 1000 ------- 0 0.0 4.0 1 3
r 0.033573 0 2 tcp 1000 ------- 0 0.0 4.0 2 4
+ 0.033573 2 3 tcp 1000 ------- 0 0.0 4.0 2 4
- 0.113493 2 3 tcp 1000 ------- 0 0.0 4.0 2 4
r 0.114493 2 3 tcp 1000 ------- 0 0.0 4.0 1 3
+ 0.114493 3 4 tcp 1000 ------- 0 0.0 4.0 1 3
- 0.114493 3 4 tcp 1000 ------- 0 0.0 4.0 1 3
r 0.119573 3 4 tcp 1000 ------- 0 0.0 4.0 1 3
+ 0.119573 4 3 ack 40 ------- 0 4.0 0.0 1 5
- 0.119573 4 3 ack 40 ------- 0 4.0 0.0 1 5
r 0.124576 4 3 ack 40 ------- 0 4.0 0.0 1 5
+ 0.124576 3 2 ack 40 ------- 0 4.0 0.0 1 5
- 0.124576 3 2 ack 40 ------- 0 4.0 0.0 1 5
r 0.128776 3 2 ack 40 ------- 0 4.0 0.0 1 5
+ 0.128776 2 0 ack 40 ------- 0 4.0 0.0 1 5
- 0.128776 2 0 ack 40 ------- 0 4.0 0.0 1 5
r 0.133779 2 0 ack 40 ------- 0 4.0 0.0 1 5
0.13378  0  0  4  0  ack_ 1
0.13378  0  0  4  0  cwnd_ 3.000 
+ 0.133779 0 2 tcp 1000 ------- 0 0.0 4.0 3 6
- 0.133779 0 2 tcp 1000 ------- 0 0.0 4.0 3 6
0.13378  0  0  4  0  maxseq_ 3
+ 0.133779 0 2 tcp 1000 ------- 0 0.0 4.0 4 7
0.13378  0  0  4  0  maxseq_ 4
- 0.133859 0 2 tcp 1000 ------- 0 0.0 4.0 4 7
r 0.138859 0 2 tcp 1000 ------- 0 0.0 4.0 3 6
+ 0.138859 2 3 tcp 1000 ------- 0 0.0 4.0 3 6
r 0.138939 0 2 tcp 1000 ------- 0 0.0 4.0 4 7
+ 0.138939 2 3 tcp 1000 ------- 0 0.0 4.0 4 7
- 0.193493 2 3 tcp 1000 ------- 0 0.0 4.0 3 6
r 0.194493 2 3 tcp 1000 ------- 0 0.0 4.0 2 4
+ 0.194493 3 4 tcp 1000 ------- 0 0.0 4.0 2 4
- 0.194493 3 4 tcp 1000 ------- 0 0.0 4.0 2 4
r 0.199573 3 4 tcp 1000 ------- 0 0.0 4.0 2 4
+ 0.199573 4 3 ack 40 ------- 0 4.0 0.0 2 8
- 0.199573 4 3 ack 40 ------- 0 4.0 0.0 2 8
r 0.204576 4 3 ack 40 ------- 0 4.0 0.0 2 8
+ 0.204576 3 2 ack 40 ------- 0 4.0 0.0 2 8
- 0.204576 3 2 ack 40 ------- 0 4.0 0.0 2 8
r 0.208776 3 2 ack 40 ------- 0 4.0 0.0 2 8
+ 0.208776 2 0 ack 40 ------- 0 4.0 0.0 2 8
- 0.208776 2 0 ack 40 ------- 0 4.0 0.0 2 8
r 0.213779 2 0 ack 40 ------- 0 4.0 0.0 2 8
0.21378  0  0  4  0  ack_ 2
0.21378  0  0  4  0  cwnd_ 4.000 
+ 0.213779 0 2 tcp 1000 ------- 0 0.0 4.0 5 9
- 0.213779 0 2 tcp 1000 ------- 0 0.0 4.0 5 9
0.21378  0  0  4  0  maxseq_ 5
+ 0.213779 0 2 tcp 1000 ------- 0 0.0 4.0 6 10
0.21378  0  0  4  0  maxseq_ 6
- 0.213859 0 2 tcp 1000 ------- 0 0.0 4.0 6 10
r 0.218859 0 2 tcp 1000 ------- 0 0.0 4.0 5 9
+ 0.218859 2 3 tcp 1000 ------- 0 0.0 4.0 5 9
r 0.218939 0 2 tcp 1000 ------- 0 0.0 4.0 6 10
+ 0.218939 2 3 tcp 1000 ------- 0 0.0 4.0 6 10
- 0.273493 2 3 tcp 1000 ------- 0 0.0 4.0 4 7
r 0.274493 2 3 tcp 1000 ------- 0 0.0 4.0 3 6
+ 0.274493 3 4 tcp 1000 ------- 0 0.0 4.0 3 6
- 0.274493 3 4 tcp 1000 ------- 0 0.0 4.0 3 6
r 0.279573 3 4 tcp 1000 ------- 0 0.0 4.0 3 6
+ 0.279573 4 3 ack 40 ------- 0 4.0 0.0 3 11
- 0.279573 4 3 ack 40 ------- 0 4.0 0.0 3 11
r 0.284576 4 3 ack 40 ------- 0 4.0 0.0 3 11
+ 0.284576 3 2 ack 40 ------- 0 4.0 0.0 3 11
- 0.284576 3 2 ack 40 ------- 0 4.0 0.0 3 11
r 0.288776 3 2 ack 40 ------- 0 4.0 0.0 3 11
+ 0.288776 2 0 ack 40 ------- 0 4.0 0.0 3 11
- 0.288776 2 0 ack 40 ------- 0 4.0 0.0 3 11
r 0.293779 2 0 ack 40 ------- 0 4.0 0.0 3 11
0.29378  0  0  4  0  ack_ 3
0.29378  0  0  4  0  cwnd_ 5.000 
+ 0.293779 0 2 tcp 1000 ------- 0 0.0 4.0 7 12
- 0.293779 0 2 tcp 1000 ------- 0 0.0 4.0 7 12
0.29378  0  0  4  0  maxseq_ 7
+ 0.293779 0 2 tcp 1000 ------- 0 0.0 4.0 8 13
0.29378  0  0  4  0  maxseq_ 8
- 0.293859 0 2 tcp 1000 ------- 0 0.0 4.0 8 13
r 0.298859 0 2 tcp 1000 ------- 0 0.0 4.0 7 12
+ 0.298859 2 3 tcp 1000 ------- 0 0.0 4.0 7 12
r 0.298939 0 2 tcp 1000 ------- 0 0.0 4.0 8 13
+ 0.298939 2 3 tcp 1000 ------- 0 0.0 4.0 8 13
- 0.353493 2 3 tcp 1000 ------- 0 0.0 4.0 5 9
r 0.354493 2 3 tcp 1000 ------- 0 0.0 4.0 4 7
+ 0.354493 3 4 tcp 1000 ------- 0 0.0 4.0 4 7
- 0.354493 3 4 tcp 1000 ------- 0 0.0 4.0 4 7
r 0.359573 3 4 tcp 1000 ------- 0 0.0 4.0 4 7
+ 0.359573 4 3 ack 40 ------- 0 4.0 0.0 4 14
- 0.359573 4 3 ack 40 ------- 0 4.0 0.0 4 14
r 0.364576 4 3 ack 40 ------- 0 4.0 0.0 4 14
+ 0.364576 3 2 ack 40 ------- 0 4.0 0.0 4 14
- 0.364576 3 2 ack 40 ------- 0 4.0 0.0 4 14
r 0.368776 3 2 ack 40 ------- 0 4.0 0.0 4 14
+ 0.368776 2 0 ack 40 ------- 0 4.0 0.0 4 14
- 0.368776 2 0 ack 40 ------- 0 4.0 0.0 4 14
r 0.373779 2 0 ack 40 ------- 0 4.0 0.0 4 14
0.37378  0  0  4  0  ack_ 4
0.37378  0  0  4  0  cwnd_ 6.000 
+ 0.373779 0 2 tcp 1000 ------- 0 0.0 4.0 9 15
- 0.373779 0 2 tcp 1000 ------- 0 0.0 4.0 9 15
0.37378  0  0  4  0  maxseq_ 9
+ 0.373779 0 2 tcp 1000 ------- 0 0.0 4.0 10 16
0.37378  0  0  4  0  maxseq_ 10
- 0.373859 0 2 tcp 1000 ------- 0 0.0 4.0 10 16
r 0.378859 0 2 tcp 1000 ------- 0 0.0 4.0 9 15
+ 0.378859 2 3 tcp 1000 ------- 0 0.0 4.0 9 15
r 0.378939 0 2 tcp 1000 ------- 0 0.0 4.0 10 16
+ 0.378939 2 3 tcp 1000 ------- 0 0.0 4.0 10 16
- 0.433493 2 3 tcp 1000 ------- 0 0.0 4.0 6 10
r 0.434493 2 3 tcp 1000 ------- 0 0.0 4.0 5 9
+ 0.434493 3 4 tcp 1000 ------- 0 0.0 4.0 5 9
- 0.434493 3 4 tcp 1000 ------- 0 0.0 4.0 5 9
r 0.439573 3 4 tcp 1000 ------- 0 0.0 4.0 5 9
+ 0.439573 4 3 ack 40 ------- 0 4.0 0.0 5 17
- 0.439573 4 3 ack 40 ------- 0 4.0 0.0 5 17
r 0.444576 4 3 ack 40 ------- 0 4.0 0.0 5 17
+ 0.444576 3 2 ack 40 ------- 0 4.0 0.0 5 17
- 0.444576 3 2 ack 40 ------- 0 4.0 0.0 5 17
r 0.448776 3 2 ack 40 ------- 0 4.0 0.0 5 17
+ 0.448776 2 0 ack 40 ------- 0 4.0 0.0 5 17
- 0.448776 2 0 ack 40 ------- 0 4.0 0.0 5 17
r 0.453779 2 0 ack 40 ------- 0 4.0 0.0 5 17
0.45378  0  0  4  0  ack_ 5
0.45378  0  0  4  0  cwnd_ 7.000 
+ 0.453779 0 2 tcp 1000 ------- 0 0.0 4.0 11 18
- 0.453779 0 2 tcp 1000 ------- 0 0.0 4.0 11 18
0.45378  0  0  4  0  maxseq_ 11
+ 0.453779 0 2 tcp 1000 ------- 0 0.0 4.0 12 19
0.45378  0  0  4  0  maxseq_ 12
- 0.453859 0 2 tcp 1000 ------- 0 0.0 4.0 12 19
r 0.458859 0 2 tcp 1000 ------- 0 0.0 4.0 11 18
+ 0.458859 2 3 tcp 1000 ------- 0 0.0 4.0 11 18
r 0.458939 0 2 tcp 1000 ------- 0 0.0 4.0 12 19
+ 0.458939 2 3 tcp 1000 ------- 0 0.0 4.0 12 19
- 0.513493 2 3 tcp 1000 ------- 0 0.0 4.0 7 12
r 0.514493 2 3 tcp 1000 ------- 0 0.0 4.0 6 10
+ 0.514493 3 4 tcp 1000 ------- 0 0.0 4.0 6 10
- 0.514493 3 4 tcp 1000 ------- 0 0.0 4.0 6 10
r 0.519573 3 4 tcp 1000 ------- 0 0.0 4.0 6 10
+ 0.519573 4 3 ack 40 ------- 0 4.0 0.0 6 20
- 0.519573 4 3 ack 40 ------- 0 4.0 0.0 6 20
r 0.524576 4 3 ack 40 ------- 0 4.0 0.0 6 20
+ 0.524576 3 2 ack 40 ------- 0 4.0 0.0 6 20
- 0.524576 3 2 ack 40 ------- 0 4.0 0.0 6 20
r 0.528776 3 2 ack 40 ------- 0 4.0 0.0 6 20
+ 0.528776 2 0 ack 40 ------- 0 4.0 0.0 6 20
- 0.528776 2 0 ack 40 ------- 0 4.0 0.0 6 20
r 0.533779 2 0 ack 40 ------- 0 4.0 0.0 6 20
0.53378  0  0  4  0  ack_ 6
0.53378  0  0  4  0  cwnd_ 8.000 
+ 0.533779 0 2 tcp 1000 ------- 0 0.0 4.0 13 21
- 0.533779 0 2 tcp 1000 ------- 0 0.0 4.0 13 21
0.53378  0  0  4  0  maxseq_ 13
+ 0.533779 0 2 tcp 1000 ------- 0 0.0 4.0 14 22
0.53378  0  0  4  0  maxseq_ 14
- 0.533859 0 2 tcp 1000 ------- 0 0.0 4.0 14 22
r 0.538859 0 2 tcp 1000 ------- 0 0.0 4.0 13 21
+ 0.538859 2 3 tcp 1000 ------- 0 0.0 4.0 13 21
r 0.538939 0 2 tcp 1000 ------- 0 0.0 4.0 14 22
+ 0.538939 2 3 tcp 1000 ------- 0 0.0 4.0 14 22
- 0.593493 2 3 tcp 1000 ------- 0 0.0 4.0 8 13
r 0.594493 2 3 tcp 1000 ------- 0 0.0 4.0 7 12
+ 0.594493 3 4 tcp 1000 ------- 0 0.0 4.0 7 12
- 0.594493 3 4 tcp 1000 ------- 0 0.0 4.0 7 12
r 0.599573 3 4 tcp 1000 ------- 0 0.0 4.0 7 12
+ 0.599573 4 3 ack 40 ------- 0 4.0 0.0 7 23
- 0.599573 4 3 ack 40 ------- 0 4.0 0.0 7 23
r 0.604576 4 3 ack 40 ------- 0 4.0 0.0 7 23
+ 0.604576 3 2 ack 40 ------- 0 4.0 0.0 7 23
- 0.604576 3 2 ack 40 ------- 0 4.0 0.0 7 23
r 0.608776 3 2 ack 40 ------- 0 4.0 0.0 7 23
+ 0.608776 2 0 ack 40 ------- 0 4.0 0.0 7 23
- 0.608776 2 0 ack 40 ------- 0 4.0 0.0 7 23
r 0.613779 2 0 ack 40 ------- 0 4.0 0.0 7 23
0.61378  0  0  4  0  ack_ 7
0.61378  0  0  4  0  cwnd_ 9.000 
+ 0.613779 0 2 tcp 1000 ------- 0 0.0 4.0 15 24
- 0.613779 0 2 tcp 1000 ------- 0 0.0 4.0 15 24
0.61378  0  0  4  0  maxseq_ 15
+ 0.613779 0 2 tcp 1000 ------- 0 0.0 4.0 16 25
0.61378  0  0  4  0  maxseq_ 16
- 0.613859 0 2 tcp 1000 ------- 0 0.0 4.0 16 25
r 0.618859 0 2 tcp 1000 ------- 0 0.0 4.0 15 24
+ 0.618859 2 3 tcp 1000 ------- 0 0.0 4.0 15 24
r 0.618939 0 2 tcp 1000 ------- 0 0.0 4.0 16 25
+ 0.618939 2 3 tcp 1000 ------- 0 0.0 4.0 16 25
- 0.673493 2 3 tcp 1000 ------- 0 0.0 4.0 9 15
r 0.674493 2 3 tcp 1000 ------- 0 0.0 4.0 8 13
+ 0.674493 3 4 tcp 1000 ------- 0 0.0 4.0 8 13
- 0.674493 3 4 tcp 1000 ------- 0 0.0 4.0 8 13
r 0.679573 3 4 tcp 1000 ------- 0 0.0 4.0 8 13
+ 0.679573 4 3 ack 40 ------- 0 4.0 0.0 8 26
- 0.679573 4 3 ack 40 ------- 0 4.0 0.0 8 26
r 0.684576 4 3 ack 40 ------- 0 4.0 0.0 8 26
+ 0.684576 3 2 ack 40 ------- 0 4.0 0.0 8 26
- 0.684576 3 2 ack 40 ------- 0 4.0 0.0 8 26
r 0.688776 3 2 ack 40 ------- 0 4.0 0.0 8 26
+ 0.688776 2 0 ack 40 ------- 0 4.0 0.0 8 26
- 0.688776 2 0 ack 40 ------- 0 4.0 0.0 8 26
r 0.693779 2 0 ack 40 ------- 0 4.0 0.0 8 26
0.69378  0  0  4  0  ack_ 8
0.69378  0  0  4  0  cwnd_ 10.000
+ 0.693779 0 2 tcp 1000 ------- 0 0.0 4.0 17 27
- 0.693779 0 2 tcp 1000 ------- 0 0.0 4.0 17 27
0.69378  0  0  4  0  maxseq_ 17
+ 0.693779 0 2 tcp 1000 ------- 0 0.0 4.0 18 28
0.69378  0  0  4  0  maxseq_ 18
- 0.693859 0 2 tcp 1000 ------- 0 0.0 4.0 18 28
r 0.698859 0 2 tcp 1000 ------- 0 0.0 4.0 17 27
+ 0.698859 2 3 tcp 1000 ------- 0 0.0 4.0 17 27
r 0.698939 0 2 tcp 1000 ------- 0 0.0 4.0 18 28
+ 0.698939 2 3 tcp 1000 ------- 0 0.0 4.0 18 28
- 0.753493 2 3 tcp 1000 ------- 0 0.0 4.0 10 16
r 0.754493 2 3 tcp 1000 ------- 0 0.0 4.0 9 15
+ 0.754493 3 4 tcp 1000 ------- 0 0.0 4.0 9 15
- 0.754493 3 4 tcp 1000 ------- 0 0.0 4.0 9 15
r 0.759573 3 4 tcp 1000 ------- 0 0.0 4.0 9 15
+ 0.759573 4 3 ack 40 ------- 0 4.0 0.0 9 29
- 0.759573 4 3 ack 40 ------- 0 4.0 0.0 9 29
r 0.764576 4 3 ack 40 ------- 0 4.0 0.0 9 29
+ 0.764576 3 2 ack 40 ------- 0 4.0 0.0 9 29
- 0.764576 3 2 ack 40 ------- 0 4.0 0.0 9 29
r 0.768776 3 2 ack 40 ------- 0 4.0 0.0 9 29
+ 0.768776 2 0 ack 40 ------- 0 4.0 0.0 9 29
- 0.768776 2 0 ack 40 ------- 0 4.0 0.0 9 29
r 0.773779 2 0 ack 40 ------- 0 4.0 0.0 9 29
0.77378  0  0  4  0  ack_ 9
0.77378  0  0  4  0  cwnd_ 11.000
+ 0.773779 0 2 tcp 1000 ------- 0 0.0 4.0 19 30
- 0.773779 0 2 tcp 1000 ------- 0 0.0 4.0 19 30
0.77378  0  0  4  0  maxseq_ 19
+ 0.773779 0 2 tcp 1000 ------- 0 0.0 4.0 20 31
0.77378  0  0  4  0  maxseq_ 20
- 0.773859 0 2 tcp 1000 ------- 0 0.0 4.0 20 31
r 0.778859 0 2 tcp 1000 ------- 0 0.0 4.0 19 30
+ 0.778859 2 3 tcp 1000 ------- 0 0.0 4.0 19 30
r 0.778939 0 2 tcp 1000 ------- 0 0.0 4.0 20 31
+ 0.778939 2 3 tcp 1000 ------- 0 0.0 4.0 20 31
d 0.778939 2 3 tcp 1000 ------- 0 0.0 4.0 20 31
- 0.833493 2 3 tcp 1000 ------- 0 0.0 4.0 11 18
r 0.834493 2 3 tcp 1000 ------- 0 0.0 4.0 10 16
+ 0.834493 3 4 tcp 1000 ------- 0 0.0 4.0 10 16
- 0.834493 3 4 tcp 1000 ------- 0 0.0 4.0 10 16
r 0.839573 3 4 tcp 1000 ------- 0 0.0 4.0 10 16
+ 0.839573 4 3 ack 40 ------- 0 4.0 0.0 10 32
- 0.839573 4 3 ack 40 ------- 0 4.0 0.0 10 32
r 0.844576 4 3 ack 40 ------- 0 4.0 0.0 10 32
+ 0.844576 3 2 ack 40 ------- 0 4.0 0.0 10 32
- 0.844576 3 2 ack 40 ------- 0 4.0 0.0 10 32
r 0.848776 3 2 ack 40 ------- 0 4.0 0.0 10 32
+ 0.848776 2 0 ack 40 ------- 0 4.0 0.0 10 32
- 0.848776 2 0 ack 40 ------- 0 4.0 0.0 10 32
r 0.853779 2 0 ack 40 ------- 0 4.0 0.0 10 32
0.85378  0  0  4  0  ack_ 10
0.85378  0  0  4  0  cwnd_ 12.000
+ 0.853779 0 2 tcp 1000 ------- 0 0.0 4.0 21 33
- 0.853779 0 2 tcp 1000 ------- 0 0.0 4.0 21 33
0.85378  0  0  4  0  maxseq_ 21
+ 0.853779 0 2 tcp 1000 ------- 0 0.0 4.0 22 34
0.85378  0  0  4  0  maxseq_ 22
- 0.853859 0 2 tcp 1000 ------- 0 0.0 4.0 22 34
r 0.858859 0 2 tcp 1000 ------- 0 0.0 4.0 21 33
+ 0.858859 2 3 tcp 1000 ------- 0 0.0 4.0 21 33
r 0.858939 0 2 tcp 1000 ------- 0 0.0 4.0 22 34
+ 0.858939 2 3 tcp 1000 ------- 0 0.0 4.0 22 34
d 0.858939 2 3 tcp 1000 ------- 0 0.0 4.0 22 34
- 0.913493 2 3 tcp 1000 ------- 0 0.0 4.0 12 19
r 0.914493 2 3 tcp 1000 ------- 0 0.0 4.0 11 18
+ 0.914493 3 4 tcp 1000 ------- 0 0.0 4.0 11 18
- 0.914493 3 4 tcp 1000 ------- 0 0.0 4.0 11 18
r 0.919573 3 4 tcp 1000 ------- 0 0.0 4.0 11 18
+ 0.919573 4 3 ack 40 ------- 0 4.0 0.0 11 35
- 0.919573 4 3 ack 40 ------- 0 4.0 0.0 11 35
r 0.924576 4 3 ack 40 ------- 0 4.0 0.0 11 35
+ 0.924576 3 2 ack 40 ------- 0 4.0 0.0 11 35
- 0.924576 3 2 ack 40 ------- 0 4.0 0.0 11 35
r 0.928776 3 2 ack 40 ------- 0 4.0 0.0 11 35
+ 0.928776 2 0 ack 40 ------- 0 4.0 0.0 11 35
- 0.928776 2 0 ack 40 ------- 0 4.0 0.0 11 35
r 0.933779 2 0 ack 40 ------- 0 4.0 0.0 11 35
0.93378  0  0  4  0  ack_ 11
0.93378  0  0  4  0  cwnd_ 13.000
+ 0.933779 0 2 tcp 1000 ------- 0 0.0 4.0 23 36
- 0.933779 0 2 tcp 1000 ------- 0 0.0 4.0 23 36
0.93378  0  0  4  0  maxseq_ 23
+ 0.933779 0 2 tcp 1000 ------- 0 0.0 4.0 24 37
0.93378  0  0  4  0  maxseq_ 24
- 0.933859 0 2 tcp 1000 ------- 0 0.0 4.0 24 37
r 0.938859 0 2 tcp 1000 ------- 0 0.0 4.0 23 36
+ 0.938859 2 3 tcp 1000 ------- 0 0.0 4.0 23 36
r 0.938939 0 2 tcp 1000 ------- 0 0.0 4.0 24 37
+ 0.938939 2 3 tcp 1000 ------- 0 0.0 4.0 24 37
d 0.938939 2 3 tcp 1000 ------- 0 0.0 4.0 24 37
- 0.993493 2 3 tcp 1000 ------- 0 0.0 4.0 13 21
r 0.994493 2 3 tcp 1000 ------- 0 0.0 4.0 12 19
+ 0.994493 3 4 tcp 1000 ------- 0 0.0 4.0 12 19
- 0.994493 3 4 tcp 1000 ------- 0 0.0 4.0 12 19
r 0.999573 3 4 tcp 1000 ------- 0 0.0 4.0 12 19
+ 0.999573 4 3 ack 40 ------- 0 4.0 0.0 12 38
- 0.999573 4 3 ack 40 ------- 0 4.0 0.0 12 38
r 1.004576 4 3 ack 40 ------- 0 4.0 0.0 12 38
+ 1.004576 3 2 ack 40 ------- 0 4.0 0.0 12 38
- 1.004576 3 2 ack 40 ------- 0 4.0 0.0 12 38
r 1.008776 3 2 ack 40 ------- 0 4.0 0.0 12 38
+ 1.008776 2 0 ack 40 ------- 0 4.0 0.0 12 38
- 1.008776 2 0 ack 40 ------- 0 4.0 0.0 12 38
r 1.013779 2 0 ack 40 ------- 0 4.0 0.0 12 38
1.01378  0  0  4  0  ack_ 12
1.01378  0  0  4  0  cwnd_ 14.000
+ 1.013779 0 2 tcp 1000 ------- 0 0.0 4.0 25 39
- 1.013779 0 2 tcp 1000 ------- 0 0.0 4.0 25 39
1.01378  0  0  4  0  maxseq_ 25
+ 1.013779 0 2 tcp 1000 ------- 0 0.0 4.0 26 40
1.01378  0  0  4  0  maxseq_ 26
- 1.013859 0 2 tcp 1000 ------- 0 0.0 4.0 26 40
r 1.018859 0 2 tcp 1000 ------- 0 0.0 4.0 25 39
+ 1.018859 2 3 tcp 1000 ------- 0 0.0 4.0 25 39
r 1.018939 0 2 tcp 1000 ------- 0 0.0 4.0 26 40
+ 1.018939 2 3 tcp 1000 ------- 0 0.0 4.0 26 40
d 1.018939 2 3 tcp 1000 ------- 0 0.0 4.0 26 40
- 1.073493 2 3 tcp 1000 ------- 0 0.0 4.0 14 22
r 1.074493 2 3 tcp 1000 ------- 0 0.0 4.0 13 21
+ 1.074493 3 4 tcp 1000 ------- 0 0.0 4.0 13 21
- 1.074493 3 4 tcp 1000 ------- 0 0.0 4.0 13 21
r 1.079573 3 4 tcp 1000 ------- 0 0.0 4.0 13 21
+ 1.079573 4 3 ack 40 ------- 0 4.0 0.0 13 41
- 1.079573 4 3 ack 40 ------- 0 4.0 0.0 13 41
r 1.084576 4 3 ack 40 ------- 0 4.0 0.0 13 41
+ 1.084576 3 2 ack 40 ------- 0 4.0 0.0 13 41
- 1.084576 3 2 ack 40 ------- 0 4.0 0.0 13 41
r 1.088776 3 2 ack 40 ------- 0 4.0 0.0 13 41
+ 1.088776 2 0 ack 40 ------- 0 4.0 0.0 13 41
- 1.088776 2 0 ack 40 ------- 0 4.0 0.0 13 41
r 1.093779 2 0 ack 40 ------- 0 4.0 0.0 13 41
1.09378  0  0  4  0  ack_ 13
1.09378  0  0  4  0  cwnd_ 15.000
+ 1.093779 0 2 tcp 1000 ------- 0 0.0 4.0 27 42
- 1.093779 0 2 tcp 1000 ------- 0 0.0 4.0 27 42
1.09378  0  0  4  0  maxseq_ 27
+ 1.093779 0 2 tcp 1000 ------- 0 0.0 4.0 28 43
1.09378  0  0  4  0  maxseq_ 28
- 1.093859 0 2 tcp 1000 ------- 0 0.0 4.0 28 43
r 1.098859 0 2 tcp 1000 ------- 0 0.0 4.0 27 42
+ 1.098859 2 3 tcp 1000 ------- 0 0.0 4.0 27 42
r 1.098939 0 2 tcp 1000 ------- 0 0.0 4.0 28 43
+ 1.098939 2 3 tcp 1000 ------- 0 0.0 4.0 28 43
d 1.098939 2 3 tcp 1000 ------- 0 0.0 4.0 28 43
- 1.153493 2 3 tcp 1000 ------- 0 0.0 4.0 15 24
r 1.154493 2 3 tcp 1000 ------- 0 0.0 4.0 14 22
+ 1.154493 3 4 tcp 1000 ------- 0 0.0 4.0 14 22
- 1.154493 3 4 tcp 1000 ------- 0 0.0 4.0 14 22
r 1.159573 3 4 tcp 1000 ------- 0 0.0 4.0 14 22
+ 1.159573 4 3 ack 40 ------- 0 4.0 0.0 14 44
- 1.159573 4 3 ack 40 ------- 0 4.0 0.0 14 44
r 1.164576 4 3 ack 40 ------- 0 4.0 0.0 14 44
+ 1.164576 3 2 ack 40 ------- 0 4.0 0.0 14 44
- 1.164576 3 2 ack 40 ------- 0 4.0 0.0 14 44
r 1.168776 3 2 ack 40 ------- 0 4.0 0.0 14 44
+ 1.168776 2 0 ack 40 ------- 0 4.0 0.0 14 44
- 1.168776 2 0 ack 40 ------- 0 4.0 0.0 14 44
r 1.173779 2 0 ack 40 ------- 0 4.0 0.0 14 44
1.17378  0  0  4  0  ack_ 14
1.17378  0  0  4  0  cwnd_ 16.000
+ 1.173779 0 2 tcp 1000 ------- 0 0.0 4.0 29 45
- 1.173779 0 2 tcp 1000 ------- 0 0.0 4.0 29 45
1.17378  0  0  4  0  maxseq_ 29
+ 1.173779 0 2 tcp 1000 ------- 0 0.0 4.0 30 46
1.17378  0  0  4  0  maxseq_ 30
- 1.173859 0 2 tcp 1000 ------- 0 0.0 4.0 30 46
r 1.178859 0 2 tcp 1000 ------- 0 0.0 4.0 29 45
+ 1.178859 2 3 tcp 1000 ------- 0 0.0 4.0 29 45
r 1.178939 0 2 tcp 1000 ------- 0 0.0 4.0 30 46
+ 1.178939 2 3 tcp 1000 ------- 0 0.0 4.0 30 46
d 1.178939 2 3 tcp 1000 ------- 0 0.0 4.0 30 46
- 1.233493 2 3 tcp 1000 ------- 0 0.0 4.0 16 25
r 1.234493 2 3 tcp 1000 ------- 0 0.0 4.0 15 24
+ 1.234493 3 4 tcp 1000 ------- 0 0.0 4.0 15 24
- 1.234493 3 4 tcp 1000 ------- 0 0.0 4.0 15 24
r 1.239573 3 4 tcp 1000 ------- 0 0.0 4.0 15 24
+ 1.239573 4 3 ack 40 ------- 0 4.0 0.0 15 47
- 1.239573 4 3 ack 40 ------- 0 4.0 0.0 15 47
r 1.244576 4 3 ack 40 ------- 0 4.0 0.0 15 47
+ 1.244576 3 2 ack 40 ------- 0 4.0 0.0 15 47
- 1.244576 3 2 ack 40 ------- 0 4.0 0.0 15 47
r 1.248776 3 2 ack 40 ------- 0 4.0 0.0 15 47
+ 1.248776 2 0 ack 40 ------- 0 4.0 0.0 15 47
- 1.248776 2 0 ack 40 ------- 0 4.0 0.0 15 47
r 1.253779 2 0 ack 40 ------- 0 4.0 0.0 15 47
1.25378  0  0  4  0  ack_ 15
1.25378  0  0  4  0  cwnd_ 17.000
+ 1.253779 0 2 tcp 1000 ------- 0 0.0 4.0 31 48
- 1.253779 0 2 tcp 1000 ------- 0 0.0 4.0 31 48
1.25378  0  0  4  0  maxseq_ 31
+ 1.253779 0 2 tcp 1000 ------- 0 0.0 4.0 32 49
1.25378  0  0  4  0  maxseq_ 32
- 1.253859 0 2 tcp 1000 ------- 0 0.0 4.0 32 49
r 1.258859 0 2 tcp 1000 ------- 0 0.0 4.0 31 48
+ 1.258859 2 3 tcp 1000 ------- 0 0.0 4.0 31 48
r 1.258939 0 2 tcp 1000 ------- 0 0.0 4.0 32 49
+ 1.258939 2 3 tcp 1000 ------- 0 0.0 4.0 32 49
d 1.258939 2 3 tcp 1000 ------- 0 0.0 4.0 32 49
- 1.313493 2 3 tcp 1000 ------- 0 0.0 4.0 17 27
r 1.314493 2 3 tcp 1000 ------- 0 0.0 4.0 16 25
+ 1.314493 3 4 tcp 1000 ------- 0 0.0 4.0 16 25
- 1.314493 3 4 tcp 1000 ------- 0 0.0 4.0 16 25
r 1.319573 3 4 tcp 1000 ------- 0 0.0 4.0 16 25
+ 1.319573 4 3 ack 40 ------- 0 4.0 0.0 16 50
- 1.319573 4 3 ack 40 ------- 0 4.0 0.0 16 50
r 1.324576 4 3 ack 40 ------- 0 4.0 0.0 16 50
+ 1.324576 3 2 ack 40 ------- 0 4.0 0.0 16 50
- 1.324576 3 2 ack 40 ------- 0 4.0 0.0 16 50
r 1.328776 3 2 ack 40 ------- 0 4.0 0.0 16 50
+ 1.328776 2 0 ack 40 ------- 0 4.0 0.0 16 50
- 1.328776 2 0 ack 40 ------- 0 4.0 0.0 16 50
r 1.333779 2 0 ack 40 ------- 0 4.0 0.0 16 50
1.33378  0  0  4  0  ack_ 16
1.33378  0  0  4  0  cwnd_ 18.000
+ 1.333779 0 2 tcp 1000 ------- 0 0.0 4.0 33 51
- 1.333779 0 2 tcp 1000 ------- 0 0.0 4.0 33 51
1.33378  0  0  4  0  maxseq_ 33
+ 1.333779 0 2 tcp 1000 ------- 0 0.0 4.0 34 52
1.33378  0  0  4  0  maxseq_ 34
- 1.333859 0 2 tcp 1000 ------- 0 0.0 4.0 34 52
r 1.338859 0 2 tcp 1000 ------- 0 0.0 4.0 33 51
+ 1.338859 2 3 tcp 1000 ------- 0 0.0 4.0 33 51
r 1.338939 0 2 tcp 1000 ------- 0 0.0 4.0 34 52
+ 1.338939 2 3 tcp 1000 ------- 0 0.0 4.0 34 52
d 1.338939 2 3 tcp 1000 ------- 0 0.0 4.0 34 52
- 1.393493 2 3 tcp 1000 ------- 0 0.0 4.0 18 28
r 1.394493 2 3 tcp 1000 ------- 0 0.0 4.0 17 27
+ 1.394493 3 4 tcp 1000 ------- 0 0.0 4.0 17 27
- 1.394493 3 4 tcp 1000 ------- 0 0.0 4.0 17 27
r 1.399573 3 4 tcp 1000 ------- 0 0.0 4.0 17 27
+ 1.399573 4 3 ack 40 ------- 0 4.0 0.0 17 53
- 1.399573 4 3 ack 40 ------- 0 4.0 0.0 17 53
r 1.404576 4 3 ack 40 ------- 0 4.0 0.0 17 53
+ 1.404576 3 2 ack 40 ------- 0 4.0 0.0 17 53
- 1.404576 3 2 ack 40 ------- 0 4.0 0.0 17 53
r 1.408776 3 2 ack 40 ------- 0 4.0 0.0 17 53
+ 1.408776 2 0 ack 40 ------- 0 4.0 0.0 17 53
- 1.408776 2 0 ack 40 ------- 0 4.0 0.0 17 53
r 1.413779 2 0 ack 40 ------- 0 4.0 0.0 17 53
1.41378  0  0  4  0  ack_ 17
1.41378  0  0  4  0  cwnd_ 19.000
+ 1.413779 0 2 tcp 1000 ------- 0 0.0 4.0 35 54
- 1.413779 0 2 tcp 1000 ------- 0 0.0 4.0 35 54
1.41378  0  0  4  0  maxseq_ 35
+ 1.413779 0 2 tcp 1000 ------- 0 0.0 4.0 36 55
1.41378  0  0  4  0  maxseq_ 36
- 1.413859 0 2 tcp 1000 ------- 0 0.0 4.0 36 55
r 1.418859 0 2 tcp 1000 ------- 0 0.0 4.0 35 54
+ 1.418859 2 3 tcp 1000 ------- 0 0.0 4.0 35 54
r 1.418939 0 2 tcp 1000 ------- 0 0.0 4.0 36 55
+ 1.418939 2 3 tcp 1000 ------- 0 0.0 4.0 36 55
d 1.418939 2 3 tcp 1000 ------- 0 0.0 4.0 36 55
- 1.473493 2 3 tcp 1000 ------- 0 0.0 4.0 19 30
r 1.474493 2 3 tcp 1000 ------- 0 0.0 4.0 18 28
+ 1.474493 3 4 tcp 1000 ------- 0 0.0 4.0 18 28
- 1.474493 3 4 tcp 1000 ------- 0 0.0 4.0 18 28
r 1.479573 3 4 tcp 1000 ------- 0 0.0 4.0 18 28
+ 1.479573 4 3 ack 40 ------- 0 4.0 0.0 18 56
- 1.479573 4 3 ack 40 ------- 0 4.0 0.0 18 56
r 1.484576 4 3 ack 40 ------- 0 4.0 0.0 18 56
+ 1.484576 3 2 ack 40 ------- 0 4.0 0.0 18 56
- 1.484576 3 2 ack 40 ------- 0 4.0 0.0 18 56
r 1.488776 3 2 ack 40 ------- 0 4.0 0.0 18 56
+ 1.488776 2 0 ack 40 ------- 0 4.0 0.0 18 56
- 1.488776 2 0 ack 40 ------- 0 4.0 0.0 18 56
r 1.493779 2 0 ack 40 ------- 0 4.0 0.0 18 56
1.49378  0  0  4  0  ack_ 18
1.49378  0  0  4  0  cwnd_ 20.000
+ 1.493779 0 2 tcp 1000 ------- 0 0.0 4.0 37 57
- 1.493779 0 2 tcp 1000 ------- 0 0.0 4.0 37 57
1.49378  0  0  4  0  maxseq_ 37
+ 1.493779 0 2 tcp 1000 ------- 0 0.0 4.0 38 58
1.49378  0  0  4  0  maxseq_ 38
- 1.493859 0 2 tcp 1000 ------- 0 0.0 4.0 38 58
r 1.498859 0 2 tcp 1000 ------- 0 0.0 4.0 37 57
+ 1.498859 2 3 tcp 1000 ------- 0 0.0 4.0 37 57
r 1.498939 0 2 tcp 1000 ------- 0 0.0 4.0 38 58
+ 1.498939 2 3 tcp 1000 ------- 0 0.0 4.0 38 58
d 1.498939 2 3 tcp 1000 ------- 0 0.0 4.0 38 58
- 1.553493 2 3 tcp 1000 ------- 0 0.0 4.0 21 33
r 1.554493 2 3 tcp 1000 ------- 0 0.0 4.0 19 30
+ 1.554493 3 4 tcp 1000 ------- 0 0.0 4.0 19 30
- 1.554493 3 4 tcp 1000 ------- 0 0.0 4.0 19 30
r 1.559573 3 4 tcp 1000 ------- 0 0.0 4.0 19 30
+ 1.559573 4 3 ack 40 ------- 0 4.0 0.0 19 59
- 1.559573 4 3 ack 40 ------- 0 4.0 0.0 19 59
r 1.564576 4 3 ack 40 ------- 0 4.0 0.0 19 59
+ 1.564576 3 2 ack 40 ------- 0 4.0 0.0 19 59
- 1.564576 3 2 ack 40 ------- 0 4.0 0.0 19 59
r 1.568776 3 2 ack 40 ------- 0 4.0 0.0 19 59
+ 1.568776 2 0 ack 40 ------- 0 4.0 0.0 19 59
- 1.568776 2 0 ack 40 ------- 0 4.0 0.0 19 59
r 1.573779 2 0 ack 40 ------- 0 4.0 0.0 19 59
1.57378  0  0  4  0  ack_ 19
1.57378  0  0  4  0  cwnd_ 20.050
+ 1.573779 0 2 tcp 1000 ------- 0 0.0 4.0 39 60
- 1.573779 0 2 tcp 1000 ------- 0 0.0 4.0 39 60
1.57378  0  0  4  0  maxseq_ 39
r 1.578859 0 2 tcp 1000 ------- 0 0.0 4.0 39 60
+ 1.578859 2 3 tcp 1000 ------- 0 0.0 4.0 39 60
- 1.633493 2 3 tcp 1000 ------- 0 0.0 4.0 23 36
r 1.634493 2 3 tcp 1000 ------- 0 0.0 4.0 21 33
+ 1.634493 3 4 tcp 1000 ------- 0 0.0 4.0 21 33
- 1.634493 3 4 tcp 1000 ------- 0 0.0 4.0 21 33
r 1.639573 3 4 tcp 1000 ------- 0 0.0 4.0 21 33
+ 1.639573 4 3 ack 40 ------- 0 4.0 0.0 19 61
- 1.639573 4 3 ack 40 ------- 0 4.0 0.0 19 61
r 1.644576 4 3 ack 40 ------- 0 4.0 0.0 19 61
+ 1.644576 3 2 ack 40 ------- 0 4.0 0.0 19 61
- 1.644576 3 2 ack 40 ------- 0 4.0 0.0 19 61
r 1.648776 3 2 ack 40 ------- 0 4.0 0.0 19 61
+ 1.648776 2 0 ack 40 ------- 0 4.0 0.0 19 61
- 1.648776 2 0 ack 40 ------- 0 4.0 0.0 19 61
r 1.653779 2 0 ack 40 ------- 0 4.0 0.0 19 61
- 1.713493 2 3 tcp 1000 ------- 0 0.0 4.0 25 39
r 1.714493 2 3 tcp 1000 ------- 0 0.0 4.0 23 36
+ 1.714493 3 4 tcp 1000 ------- 0 0.0 4.0 23 36
- 1.714493 3 4 tcp 1000 ------- 0 0.0 4.0 23 36
r 1.719573 3 4 tcp 1000 ------- 0 0.0 4.0 23 36
+ 1.719573 4 3 ack 40 ------- 0 4.0 0.0 19 62
- 1.719573 4 3 ack 40 ------- 0 4.0 0.0 19 62
r 1.724576 4 3 ack 40 ------- 0 4.0 0.0 19 62
+ 1.724576 3 2 ack 40 ------- 0 4.0 0.0 19 62
- 1.724576 3 2 ack 40 ------- 0 4.0 0.0 19 62
r 1.728776 3 2 ack 40 ------- 0 4.0 0.0 19 62
+ 1.728776 2 0 ack 40 ------- 0 4.0 0.0 19 62
- 1.728776 2 0 ack 40 ------- 0 4.0 0.0 19 62
r 1.733779 2 0 ack 40 ------- 0 4.0 0.0 19 62
- 1.793493 2 3 tcp 1000 ------- 0 0.0 4.0 27 42
r 1.794493 2 3 tcp 1000 ------- 0 0.0 4.0 25 39
+ 1.794493 3 4 tcp 1000 ------- 0 0.0 4.0 25 39
- 1.794493 3 4 tcp 1000 ------- 0 0.0 4.0 25 39
r 1.799573 3 4 tcp 1000 ------- 0 0.0 4.0 25 39
+ 1.799573 4 3 ack 40 ------- 0 4.0 0.0 19 63
- 1.799573 4 3 ack 40 ------- 0 4.0 0.0 19 63
r 1.804576 4 3 ack 40 ------- 0 4.0 0.0 19 63
+ 1.804576 3 2 ack 40 ------- 0 4.0 0.0 19 63
- 1.804576 3 2 ack 40 ------- 0 4.0 0.0 19 63
r 1.808776 3 2 ack 40 ------- 0 4.0 0.0 19 63
+ 1.808776 2 0 ack 40 ------- 0 4.0 0.0 19 63
- 1.808776 2 0 ack 40 ------- 0 4.0 0.0 19 63
r 1.813779 2 0 ack 40 ------- 0 4.0 0.0 19 63
1.81378  0  0  4  0  ssthresh_ 10
1.81378  0  0  4  0  cwnd_ 10.000
+ 1.813779 0 2 tcp 1000 ---A--- 0 0.0 4.0 20 64
- 1.813779 0 2 tcp 1000 ---A--- 0 0.0 4.0 20 64
r 1.818859 0 2 tcp 1000 ---A--- 0 0.0 4.0 20 64
+ 1.818859 2 3 tcp 1000 ---A--- 0 0.0 4.0 20 64
- 1.873493 2 3 tcp 1000 ------- 0 0.0 4.0 29 45
r 1.874493 2 3 tcp 1000 ------- 0 0.0 4.0 27 42
+ 1.874493 3 4 tcp 1000 ------- 0 0.0 4.0 27 42
- 1.874493 3 4 tcp 1000 ------- 0 0.0 4.0 27 42
r 1.879573 3 4 tcp 1000 ------- 0 0.0 4.0 27 42
+ 1.879573 4 3 ack 40 ------- 0 4.0 0.0 19 65
- 1.879573 4 3 ack 40 ------- 0 4.0 0.0 19 65
r 1.884576 4 3 ack 40 ------- 0 4.0 0.0 19 65
+ 1.884576 3 2 ack 40 ------- 0 4.0 0.0 19 65
- 1.884576 3 2 ack 40 ------- 0 4.0 0.0 19 65
r 1.888776 3 2 ack 40 ------- 0 4.0 0.0 19 65
+ 1.888776 2 0 ack 40 ------- 0 4.0 0.0 19 65
- 1.888776 2 0 ack 40 ------- 0 4.0 0.0 19 65
r 1.893779 2 0 ack 40 ------- 0 4.0 0.0 19 65
- 1.953493 2 3 tcp 1000 ------- 0 0.0 4.0 31 48
r 1.954493 2 3 tcp 1000 ------- 0 0.0 4.0 29 45
+ 1.954493 3 4 tcp 1000 ------- 0 0.0 4.0 29 45
- 1.954493 3 4 tcp 1000 ------- 0 0.0 4.0 29 45
r 1.959573 3 4 tcp 1000 ------- 0 0.0 4.0 29 45
+ 1.959573 4 3 ack 40 ------- 0 4.0 0.0 19 66
- 1.959573 4 3 ack 40 ------- 0 4.0 0.0 19 66
r 1.964576 4 3 ack 40 ------- 0 4.0 0.0 19 66
+ 1.964576 3 2 ack 40 ------- 0 4.0 0.0 19 66
- 1.964576 3 2 ack 40 ------- 0 4.0 0.0 19 66
r 1.968776 3 2 ack 40 ------- 0 4.0 0.0 19 66
+ 1.968776 2 0 ack 40 ------- 0 4.0 0.0 19 66
- 1.968776 2 0 ack 40 ------- 0 4.0 0.0 19 66
r 1.973779 2 0 ack 40 ------- 0 4.0 0.0 19 66
- 2.033493 2 3 tcp 1000 ------- 0 0.0 4.0 33 51
r 2.034493 2 3 tcp 1000 ------- 0 0.0 4.0 31 48
+ 2.034493 3 4 tcp 1000 ------- 0 0.0 4.0 31 48
- 2.034493 3 4 tcp 1000 ------- 0 0.0 4.0 31 48
r 2.039573 3 4 tcp 1000 ------- 0 0.0 4.0 31 48
+ 2.039573 4 3 ack 40 ------- 0 4.0 0.0 19 67
- 2.039573 4 3 ack 40 ------- 0 4.0 0.0 19 67
r 2.044576 4 3 ack 40 ------- 0 4.0 0.0 19 67
+ 2.044576 3 2 ack 40 ------- 0 4.0 0.0 19 67
- 2.044576 3 2 ack 40 ------- 0 4.0 0.0 19 67
r 2.048776 3 2 ack 40 ------- 0 4.0 0.0 19 67
+ 2.048776 2 0 ack 40 ------- 0 4.0 0.0 19 67
- 2.048776 2 0 ack 40 ------- 0 4.0 0.0 19 67
r 2.053779 2 0 ack 40 ------- 0 4.0 0.0 19 67
- 2.113493 2 3 tcp 1000 ------- 0 0.0 4.0 35 54
r 2.114493 2 3 tcp 1000 ------- 0 0.0 4.0 33 51
+ 2.114493 3 4 tcp 1000 ------- 0 0.0 4.0 33 51
- 2.114493 3 4 tcp 1000 ------- 0 0.0 4.0 33 51
r 2.119573 3 4 tcp 1000 ------- 0 0.0 4.0 33 51
+ 2.119573 4 3 ack 40 ------- 0 4.0 0.0 19 68
- 2.119573 4 3 ack 40 ------- 0 4.0 0.0 19 68
r 2.124576 4 3 ack 40 ------- 0 4.0 0.0 19 68
+ 2.124576 3 2 ack 40 ------- 0 4.0 0.0 19 68
- 2.124576 3 2 ack 40 ------- 0 4.0 0.0 19 68
r 2.128776 3 2 ack 40 ------- 0 4.0 0.0 19 68
+ 2.128776 2 0 ack 40 ------- 0 4.0 0.0 19 68
- 2.128776 2 0 ack 40 ------- 0 4.0 0.0 19 68
r 2.133779 2 0 ack 40 ------- 0 4.0 0.0 19 68
- 2.193493 2 3 tcp 1000 ------- 0 0.0 4.0 37 57
r 2.194493 2 3 tcp 1000 ------- 0 0.0 4.0 35 54
+ 2.194493 3 4 tcp 1000 ------- 0 0.0 4.0 35 54
- 2.194493 3 4 tcp 1000 ------- 0 0.0 4.0 35 54
r 2.199573 3 4 tcp 1000 ------- 0 0.0 4.0 35 54
+ 2.199573 4 3 ack 40 ------- 0 4.0 0.0 19 69
- 2.199573 4 3 ack 40 ------- 0 4.0 0.0 19 69
r 2.204576 4 3 ack 40 ------- 0 4.0 0.0 19 69
+ 2.204576 3 2 ack 40 ------- 0 4.0 0.0 19 69
- 2.204576 3 2 ack 40 ------- 0 4.0 0.0 19 69
r 2.208776 3 2 ack 40 ------- 0 4.0 0.0 19 69
+ 2.208776 2 0 ack 40 ------- 0 4.0 0.0 19 69
- 2.208776 2 0 ack 40 ------- 0 4.0 0.0 19 69
r 2.213779 2 0 ack 40 ------- 0 4.0 0.0 19 69
- 2.273493 2 3 tcp 1000 ------- 0 0.0 4.0 39 60
r 2.274493 2 3 tcp 1000 ------- 0 0.0 4.0 37 57
+ 2.274493 3 4 tcp 1000 ------- 0 0.0 4.0 37 57
- 2.274493 3 4 tcp 1000 ------- 0 0.0 4.0 37 57
r 2.279573 3 4 tcp 1000 ------- 0 0.0 4.0 37 57
+ 2.279573 4 3 ack 40 ------- 0 4.0 0.0 19 70
- 2.279573 4 3 ack 40 ------- 0 4.0 0.0 19 70
r 2.284576 4 3 ack 40 ------- 0 4.0 0.0 19 70
+ 2.284576 3 2 ack 40 ------- 0 4.0 0.0 19 70
- 2.284576 3 2 ack 40 ------- 0 4.0 0.0 19 70
r 2.288776 3 2 ack 40 ------- 0 4.0 0.0 19 70
+ 2.288776 2 0 ack 40 ------- 0 4.0 0.0 19 70
- 2.288776 2 0 ack 40 ------- 0 4.0 0.0 19 70