0.00000  0  0  -1 -1 cwnd_ 1.000 
0.00000  0  0  -1 -1 ssthresh_ 20
0.00000  0  0  -1 -1 ack_ -1
0.00000  0  0  -1 -1 maxseq_ -1
0.00000  1  0  -1 -1 cwnd_ 1.000 
0.00000  1  0  -1 -1 ssthresh_ 20
0.00000  1  0  -1 -1 ack_ -1
0.00000  1  0  -1 -1 maxseq_ -1
+ 0 0 2 tcp 40 ------- 0 0.0 4.0 0 0
- 0 0 2 tcp 40 ------- 0 0.0 4.0 0 0
0.00000  0  0  4  0  maxseq_ 0
+ 0 1 2 tcp 40 ------- 0 1.0 5.0 0 1
- 0 1 2 tcp 40 ------- 0 1.0 5.0 0 1
0.00000  1  0  5  0  maxseq_ 0
r 0.005003 0 2 tcp 40 ------- 0 0.0 4.0 0 0
+ 0.005003 2 3 tcp 40 ------- 0 0.0 4.0 0 0
- 0.005003 2 3 tcp 40 ------- 0 0.0 4.0 0 0
r 0.009203 2 3 tcp 40 ------- 0 0.0 4.0 0 0
+ 0.009203 3 4 tcp 40 ------- 0 0.0 4.0 0 0
- 0.009203 3 4 tcp 40 ------- 0 0.0 4.0 0 0
r 0.014206 3 4 tcp 40 ------- 0 0.0 4.0 0 0
+ 0.014206 4 3 ack 40 ------- 0 4.0 0.0 0 2
- 0.014206 4 3 ack 40 ------- 0 4.0 0.0 0 2
r 0.01921 4 3 ack 40 ------- 0 4.0 0.0 0 2
+ 0.01921 3 2 ack 40 ------- 0 4.0 0.0 0 2
- 0.01921 3 2 ack 40 ------- 0 4.0 0.0 0 2
r 0.020003 1 2 tcp 40 ------- 0 1.0 5.0 0 1
+ 0.020003 2 3 tcp 40 ------- 0 1.0 5.0 0 1
- 0.020003 2 3 tcp 40 ------- 0 1.0 5.0 0 1
r 0.02341 3 2 ack 40 ------- 0 4.0 0.0 0 2
+ 0.02341 2 0 ack 40 ------- 0 4.0 0.0 0 2
- 0.02341 2 0 ack 40 ------- 0 4.0 0.0 0 2
r 0.024203 2 3 tcp 40 ------- 0 1.0 5.0 0 1
+ 0.024203 3 5 tcp 40 ------- 0 1.0 5.0 0 1
- 0.024203 3 5 tcp 40 ------- 0 1.0 5.0 0 1
r 0.028413 2 0 ack 40 ------- 0 4.0 0.0 0 2
0.02841  0  0  4  0  ack_ 0
0.02841  0  0  4  0  cwnd_ 2.000 
+ 0.028413 0 2 tcp 1000 ------- 0 0.0 4.0 1 3
- 0.028413 0 2 tcp 1000 ------- 0 0.0 4.0 1 3
0.02841  0  0  4  0  maxseq_ 1
+ 0.028413 0 2 tcp 1000 ------- 0 0.0 4.0 2 4
0.02841  0  0  4  0  maxseq_ 2
- 0.028493 0 2 tcp 1000 ------- 0 0.0 4.0 2 4
r 0.030206 3 5 tcp 40 ------- 0 1.0 5.0 0 1
+ 0.030206 5 3 ack 40 ------- 0 5.0 1.0 0 5
- 0.030206 5 3 ack 40 ------- 0 5.0 1.0 0 5
r 0.033493 0 2 tcp 1000 ------- 0 0.0 4.0 1 3
+ 0.033493 2 3 tcp 1000 ------- 0 0.0 4.0 1 3
- 0.033493 2 3 tcp 1000 ------- 0 0.0 4.0 1 3
r 0.033573 0 2 tcp 1000 ------- 0 0.0 4.0 2 4
+ 0.033573 2 3 tcp 1000 ------- 0 0.0 4.0 2 4
r 0.03621 5 3 ack 40 ------- 0 5.0 1.0 0 5
+ 0.03621 3 2 ack 40 ------- 0 5.0 1.0 0 5
- 0.03621 3 2 ack 40 ------- 0 5.0 1.0 0 5
r 0.04041 3 2 ack 40 ------- 0 5.0 1.0 0 5
+ 0.04041 2 1 ack 40 ------- 0 5.0 1.0 0 5
- 0.04041 2 1 ack 40 ------- 0 5.0 1.0 0 5
r 0.060413 2 1 ack 40 ------- 0 5.0 1.0 0 5
0.06041  1  0  5  0  ack_ 0
0.06041  1  0  5  0  cwnd_ 2.000 
+ 0.060413 1 2 tcp 1000 ------- 0 1.0 5.0 1 6
- 0.060413 1 2 tcp 1000 ------- 0 1.0 5.0 1 6
0.06041  1  0  5  0  maxseq_ 1
+ 0.060413 1 2 tcp 1000 ------- 0 1.0 5.0 2 7
0.06041  1  0  5  0  maxseq_ 2
- 0.060493 1 2 tcp 1000 ------- 0 1.0 5.0 2 7
r 0.080493 1 2 tcp 1000 ------- 0 1.0 5.0 1 6
+ 0.080493 2 3 tcp 1000 ------- 0 1.0 5.0 1 6
r 0.080573 1 2 tcp 1000 ------- 0 1.0 5.0 2 7
+ 0.080573 2 3 tcp 1000 ------- 0 1.0 5.0 2 7
- 0.113493 2 3 tcp 1000 ------- 0 0.0 4.0 2 4
r 0.114493 2 3 tcp 1000 ------- 0 0.0 4.0 1 3
+ 0.114493 3 4 tcp 1000 ------- 0 0.0 4.0 1 3
- 0.114493 3 4 tcp 1000 ------- 0 0.0 4.0 1 3
r 0.119573 3 4 tcp 1000 ------- 0 0.0 4.0 1 3
+ 0.119573 4 3 ack 40 ------- 0 4.0 0.0 1 8
- 0.119573 4 3 ack 40 ------- 0 4.0 0.0 1 8
r 0.124576 4 3 ack 40 ------- 0 4.0 0.0 1 8
+ 0.124576 3 2 ack 40 ------- 0 4.0 0.0 1 8
- 0.124576 3 2 ack 40 ------- 0 4.0 0.0 1 8
r 0.128776 3 2 ack 40 ------- 0 4.0 0.0 1 8
+ 0.128776 2 0 ack 40 ------- 0 4.0 0.0 1 8
- 0.128776 2 0 ack 40 ------- 0 4.0 0.0 1 8
r 0.133779 2 0 ack 40 ------- 0 4.0 0.0 1 8
0.13378  0  0  4  0  ack_ 1
0.13378  0  0  4  0  cwnd_ 3.000 
+ 0.133779 0 2 tcp 1000 ------- 0 0.0 4.0 3 9
- 0.133779 0 2 tcp 1000 ------- 0 0.0 4.0 3 9
0.13378  0  0  4  0  maxseq_ 3
+ 0.133779 0 2 tcp 1000 ------- 0 0.0 4.0 4 10
0.13378  0  0  4  0  maxseq_ 4
- 0.133859 0 2 tcp 1000 ------- 0 0.0 4.0 4 10
r 0.138859 0 2 tcp 1000 ------- 0 0.0 4.0 3 9
+ 0.138859 2 3 tcp 1000 ------- 0 0.0 4.0 3 9
r 0.138939 0 2 tcp 1000 ------- 0 0.0 4.0 4 10
+ 0.138939 2 3 tcp 1000 ------- 0 0.0 4.0 4 10
- 0.193493 2 3 tcp 1000 ------- 0 1.0 5.0 1 6
r 0.194493 2 3 tcp 1000 ------- 0 0.0 4.0 2 4
+ 0.194493 3 4 tcp 1000 ------- 0 0.0 4.0 2 4
- 0.194493 3 4 tcp 1000 ------- 0 0.0 4.0 2 4
r 0.199573 3 4 tcp 1000 ------- 0 0.0 4.0 2 4
+ 0.199573 4 3 ack 40 ------- 0 4.0 0.0 2 11
- 0.199573 4 3 ack 40 ------- 0 4.0 0.0 2 11
r 0.204576 4 3 ack 40 ------- 0 4.0 0.0 2 11
+ 0.204576 3 2 ack 40 ------- 0 4.0 0.0 2 11
- 0.204576 3 2 ack 40 ------- 0 4.0 0.0 2 11
r 0.208776 3 2 ack 40 ------- 0 4.0 0.0 2 11
+ 0.208776 2 0 ack 40 ------- 0 4.0 0.0 2 11
- 0.208776 2 0 ack 40 ------- 0 4.0 0.0 2 11
r 0.213779 2 0 ack 40 ------- 0 4.0 0.0 2 11
0.21378  0  0  4  0  ack_ 2
0.21378  0  0  4  0  cwnd_ 4.000 
+ 0.213779 0 2 tcp 1000 ------- 0 0.0 4.0 5 12
- 0.213779 0 2 tcp 1000 ------- 0 0.0 4.0 5 12
0.21378  0  0  4  0  maxseq_ 5
+ 0.213779 0 2 tcp 1000 ------- 0 0.0 4.0 6 13
0.21378  0  0  4  0  maxseq_ 6
- 0.213859 0 2 tcp 1000 ------- 0 0.0 4.0 6 13
r 0.218859 0 2 tcp 1000 ------- 0 0.0 4.0 5 12
+ 0.218859 2 3 tcp 1000 ------- 0 0.0 4.0 5 12
r 0.218939 0 2 tcp 1000 ------- 0 0.0 4.0 6 13
+ 0.218939 2 3 tcp 1000 ------- 0 0.0 4.0 6 13
0.26041  1  0  5  0  ssthresh_ 1
0.26041  1  0  5  0  cwnd_ 1.000 
0.26041  1  0  5  0  ssthresh_ 2
+ 0.260413 1 2 tcp 1000 ---A--- 0 1.0 5.0 1 14
- 0.260413 1 2 tcp 1000 ---A--- 0 1.0 5.0 1 14
- 0.273493 2 3 tcp 1000 ------- 0 1.0 5.0 2 7
r 0.274493 2 3 tcp 1000 ------- 0 1.0 5.0 1 6
+ 0.274493 3 5 tcp 1000 ------- 0 1.0 5.0 1 6
- 0.274493 3 5 tcp 1000 ------- 0 1.0 5.0 1 6
r 0.280493 1 2 tcp 1000 ---A--- 0 1.0 5.0 1 14
+ 0.280493 2 3 tcp 1000 ---A--- 0 1.0 5.0 1 14
r 0.280573 3 5 tcp 1000 ------- 0 1.0 5.0 1 6
+ 0.280573 5 3 ack 40 ------- 0 5.0 1.0 1 15
- 0.280573 5 3 ack 40 ------- 0 5.0 1.0 1 15
r 0.286576 5 3 ack 40 ------- 0 5.0 1.0 1 15
+ 0.286576 3 2 ack 40 ------- 0 5.0 1.0 1 15
- 0.286576 3 2 ack 40 ------- 0 5.0 1.0 1 15
r 0.290776 3 2 ack 40 ------- 0 5.0 1.0 1 15
+ 0.290776 2 1 ack 40 ------- 0 5.0 1.0 1 15
- 0.290776 2 1 ack 40 ------- 0 5.0 1.0 1 15
r 0.310779 2 1 ack 40 ------- 0 5.0 1.0 1 15
0.31078  1  0  5  0  ack_ 1
0.31078  1  0  5  0  cwnd_ 2.000 
+ 0.310779 1 2 tcp 1000 ------- 0 1.0 5.0 2 16
- 0.310779 1 2 tcp 1000 ------- 0 1.0 5.0 2 16
+ 0.310779 1 2 tcp 1000 ------- 0 1.0 5.0 3 17
0.31078  1  0  5  0  maxseq_ 3
- 0.310859 1 2 tcp 1000 ------- 0 1.0 5.0 3 17
r 0.330859 1 2 tcp 1000 ------- 0 1.0 5.0 2 16
+ 0.330859 2 3 tcp 1000 ------- 0 1.0 5.0 2 16
r 0.330939 1 2 tcp 1000 ------- 0 1.0 5.0 3 17
+ 0.330939 2 3 tcp 1000 ------- 0 1.0 5.0 3 17
- 0.353493 2 3 tcp 1000 ------- 0 0.0 4.0 3 9
r 0.354493 2 3 tcp 1000 ------- 0 1.0 5.0 2 7
+ 0.354493 3 5 tcp 1000 ------- 0 1.0 5.0 2 7
- 0.354493 3 5 tcp 1000 ------- 0 1.0 5.0 2 7
r 0.360573 3 5 tcp 1000 ------- 0 1.0 5.0 2 7
+ 0.360573 5 3 ack 40 ------- 0 5.0 1.0 2 18
- 0.360573 5 3 ack 40 ------- 0 5.0 1.0 2 18
r 0.366576 5 3 ack 40 ------- 0 5.0 1.0 2 18
+ 0.366576 3 2 ack 40 ------- 0 5.0 1.0 2 18
- 0.366576 3 2 ack 40 ------- 0 5.0 1.0 2 18
r 0.370776 3 2 ack 40 ------- 0 5.0 1.0 2 18
+ 0.370776 2 1 ack 40 ------- 0 5.0 1.0 2 18
- 0.370776 2 1 ack 40 ------- 0 5.0 1.0 2 18
r 0.390779 2 1 ack 40 ------- 0 5.0 1.0 2 18
0.39078  1  0  5  0  ack_ 2
0.39078  1  0  5  0  cwnd_ 2.500 
+ 0.390779 1 2 tcp 1000 ------- 0 1.0 5.0 4 19
- 0.390779 1 2 tcp 1000 ------- 0 1.0 5.0 4 19
0.39078  1  0  5  0  maxseq_ 4
r 0.410859 1 2 tcp 1000 ------- 0 1.0 5.0 4 19
+ 0.410859 2 3 tcp 1000 ------- 0 1.0 5.0 4 19
0.41378  0  0  4  0  ssthresh_ 2
0.41378  0  0  4  0  cwnd_ 1.000 
+ 0.413779 0 2 tcp 1000 ---A--- 0 0.0 4.0 3 20
- 0.413779 0 2 tcp 1000 ---A--- 0 0.0 4.0 3 20
r 0.418859 0 2 tcp 1000 ---A--- 0 0.0 4.0 3 20
+ 0.418859 2 3 tcp 1000 ---A--- 0 0.0 4.0 3 20
- 0.433493 2 3 tcp 1000 ------- 0 0.0 4.0 4 10
r 0.434493 2 3 tcp 1000 ------- 0 0.0 4.0 3 9
+ 0.434493 3 4 tcp 1000 ------- 0 0.0 4.0 3 9
- 0.434493 3 4 tcp 1000 ------- 0 0.0 4.0 3 9
r 0.439573 3 4 tcp 1000 ------- 0 0.0 4.0 3 9
+ 0.439573 4 3 ack 40 ------- 0 4.0 0.0 3 21
- 0.439573 4 3 ack 40 ------- 0 4.0 0.0 3 21
r 0.444576 4 3 ack 40 ------- 0 4.0 0.0 3 21
+ 0.444576 3 2 ack 40 ------- 0 4.0 0.0 3 21
- 0.444576 3 2 ack 40 ------- 0 4.0 0.0 3 21
r 0.448776 3 2 ack 40 ------- 0 4.0 0.0 3 21
+ 0.448776 2 0 ack 40 ------- 0 4.0 0.0 3 21
- 0.448776 2 0 ack 40 ------- 0 4.0 0.0 3 21
r 0.453779 2 0 ack 40 ------- 0 4.0 0.0 3 21
0.45378  0  0  4  0  ack_ 3
0.45378  0  0  4  0  cwnd_ 2.000 
+ 0.453779 0 2 tcp 1000 ------- 0 0.0 4.0 4 22
- 0.453779 0 2 tcp 1000 ------- 0 0.0 4.0 4 22
+ 0.453779 0 2 tcp 1000 ------- 0 0.0 4.0 5 23
- 0.453859 0 2 tcp 1000 ------- 0 0.0 4.0 5 23
r 0.458859 0 2 tcp 1000 ------- 0 0.0 4.0 4 22
+ 0.458859 2 3 tcp 1000 ------- 0 0.0 4.0 4 22
r 0.458939 0 2 tcp 1000 ------- 0 0.0 4.0 5 23
+ 0.458939 2 3 tcp 1000 ------- 0 0.0 4.0 5 23
- 0.513493 2 3 tcp 1000 ------- 0 0.0 4.0 5 12
r 0.514493 2 3 tcp 1000 ------- 0 0.0 4.0 4 10
+ 0.514493 3 4 tcp 1000 ------- 0 0.0 4.0 4 10
- 0.514493 3 4 tcp 1000 ------- 0 0.0 4.0 4 10
r 0.519573 3 4 tcp 1000 ------- 0 0.0 4.0 4 10
+ 0.519573 4 3 ack 40 ------- 0 4.0 0.0 4 24
- 0.519573 4 3 ack 40 ------- 0 4.0 0.0 4 24
r 0.524576 4 3 ack 40 ------- 0 4.0 0.0 4 24
+ 0.524576 3 2 ack 40 ------- 0 4.0 0.0 4 24
- 0.524576 3 2 ack 40 ------- 0 4.0 0.0 4 24
r 0.528776 3 2 ack 40 ------- 0 4.0 0.0 4 24
+ 0.528776 2 0 ack 40 ------- 0 4.0 0.0 4 24
- 0.528776 2 0 ack 40 ------- 0 4.0 0.0 4 24
r 0.533779 2 0 ack 40 ------- 0 4.0 0.0 4 24
0.53378  0  0  4  0  ack_ 4
0.53378  0  0  4  0  cwnd_ 2.500 
+ 0.533779 0 2 tcp 1000 ------- 0 0.0 4.0 6 25
- 0.533779 0 2 tcp 1000 ------- 0 0.0 4.0 6 25
r 0.538859 0 2 tcp 1000 ------- 0 0.0 4.0 6 25
+ 0.538859 2 3 tcp 1000 ------- 0 0.0 4.0 6 25
- 0.593493 2 3 tcp 1000 ------- 0 0.0 4.0 6 13
r 0.594493 2 3 tcp 1000 ------- 0 0.0 4.0 5 12
+ 0.594493 3 4 tcp 1000 ------- 0 0.0 4.0 5 12
- 0.594493 3 4 tcp 1000 ------- 0 0.0 4.0 5 12
r 0.599573 3 4 tcp 1000 ------- 0 0.0 4.0 5 12
+ 0.599573 4 3 ack 40 ------- 0 4.0 0.0 5 26
- 0.599573 4 3 ack 40 ------- 0 4.0 0.0 5 26
r 0.604576 4 3 ack 40 ------- 0 4.0 0.0 5 26
+ 0.604576 3 2 ack 40 ------- 0 4.0 0.0 5 26
- 0.604576 3 2 ack 40 ------- 0 4.0 0.0 5 26
r 0.608776 3 2 ack 40 ------- 0 4.0 0.0 5 26
+ 0.608776 2 0 ack 40 ------- 0 4.0 0.0 5 26
- 0.608776 2 0 ack 40 ------- 0 4.0 0.0 5 26
r 0.613779 2 0 ack 40 ------- 0 4.0 0.0 5 26
0.61378  0  0  4  0  ack_ 5
0.61378  0  0  4  0  cwnd_ 2.900 
+ 0.613779 0 2 tcp 1000 ------- 0 0.0 4.0 7 27
- 0.613779 0 2 tcp 1000 ------- 0 0.0 4.0 7 27
0.61378  0  0  4  0  maxseq_ 7
r 0.618859 0 2 tcp 1000 ------- 0 0.0 4.0 7 27
+ 0.618859 2 3 tcp 1000 ------- 0 0.0 4.0 7 27
- 0.673493 2 3 tcp 1000 ---A--- 0 1.0 5.0 1 14
r 0.674493 2 3 tcp 1000 ------- 0 0.0 4.0 6 13
+ 0.674493 3 4 tcp 1000 ------- 0 0.0 4.0 6 13
- 0.674493 3 4 tcp 1000 ------- 0 0.0 4.0 6 13
r 0.679573 3 4 tcp 1000 ------- 0 0.0 4.0 6 13
+ 0.679573 4 3 ack 40 ------- 0 4.0 0.0 6 28
- 0.679573 4 3 ack 40 ------- 0 4.0 0.0 6 28
r 0.684576 4 3 ack 40 ------- 0 4.0 0.0 6 28
+ 0.684576 3 2 ack 40 ------- 0 4.0 0.0 6 28
- 0.684576 3 2 ack 40 ------- 0 4.0 0.0 6 28
r 0.688776 3 2 ack 40 ------- 0 4.0 0.0 6 28
+ 0.688776 2 0 ack 40 ------- 0 4.0 0.0 6 28
- 0.688776 2 0 ack 40 ------- 0 4.0 0.0 6 28
r 0.693779 2 0 ack 40 ------- 0 4.0 0.0 6 28
0.69378  0  0  4  0  ack_ 6
0.69378  0  0  4  0  cwnd_ 3.245 
+ 0.693779 0 2 tcp 1000 ------- 0 0.0 4.0 8 29
- 0.693779 0 2 tcp 1000 ------- 0 0.0 4.0 8 29
0.69378  0  0  4  0  maxseq_ 8
+ 0.693779 0 2 tcp 1000 ------- 0 0.0 4.0 9 30
0.69378  0  0  4  0  maxseq_ 9
- 0.693859 0 2 tcp 1000 ------- 0 0.0 4.0 9 30
r 0.698859 0 2 tcp 1000 ------- 0 0.0 4.0 8 29
+ 0.698859 2 3 tcp 1000 ------- 0 0.0 4.0 8 29
r 0.698939 0 2 tcp 1000 ------- 0 0.0 4.0 9 30
+ 0.698939 2 3 tcp 1000 ------- 0 0.0 4.0 9 30
d 0.698939 2 3 tcp 1000 ------- 0 0.0 4.0 9 30
- 0.753493 2 3 tcp 1000 ------- 0 1.0 5.0 2 16
r 0.754493 2 3 tcp 1000 ---A--- 0 1.0 5.0 1 14
+ 0.754493 3 5 tcp 1000 ---A--- 0 1.0 5.0 1 14
- 0.754493 3 5 tcp 1000 ---A--- 0 1.0 5.0 1 14
r 0.760573 3 5 tcp 1000 ---A--- 0 1.0 5.0 1 14
+ 0.760573 5 3 ack 40 ------- 0 5.0 1.0 2 31
- 0.760573 5 3 ack 40 ------- 0 5.0 1.0 2 31
r 0.766576 5 3 ack 40 ------- 0 5.0 1.0 2 31
+ 0.766576 3 2 ack 40 ------- 0 5.0 1.0 2 31
- 0.766576 3 2 ack 40 ------- 0 5.0 1.0 2 31
r 0.770776 3 2 ack 40 ------- 0 5.0 1.0 2 31
+ 0.770776 2 1 ack 40 ------- 0 5.0 1.0 2 31
- 0.770776 2 1 ack 40 ------- 0 5.0 1.0 2 31
r 0.790779 2 1 ack 40 ------- 0 5.0 1.0 2 31
+ 0.790779 1 2 tcp 1000 ------- 0 1.0 5.0 5 32
- 0.790779 1 2 tcp 1000 ------- 0 1.0 5.0 5 32
0.79078  1  0  5  0  maxseq_ 5
0.79078  1  0  5  0  ssthresh_ 1
0.79078  1  0  5  0  cwnd_ 1.000 
0.79078  1  0  5  0  ssthresh_ 2
+ 0.790779 1 2 tcp 1000 ---A--- 0 1.0 5.0 3 33
- 0.790859 1 2 tcp 1000 ---A--- 0 1.0 5.0 3 33
r 0.810859 1 2 tcp 1000 ------- 0 1.0 5.0 5 32
+ 0.810859 2 3 tcp 1000 ------- 0 1.0 5.0 5 32
r 0.810939 1 2 tcp 1000 ---A--- 0 1.0 5.0 3 33
+ 0.810939 2 3 tcp 1000 ---A--- 0 1.0 5.0 3 33
d 0.810939 2 3 tcp 1000 ---A--- 0 1.0 5.0 3 33
- 0.833493 2 3 tcp 1000 ------- 0 1.0 5.0 3 17
r 0.834493 2 3 tcp 1000 ------- 0 1.0 5.0 2 16
+ 0.834493 3 5 tcp 1000 ------- 0 1.0 5.0 2 16
- 0.834493 3 5 tcp 1000 ------- 0 1.0 5.0 2 16
r 0.840573 3 5 tcp 1000 ------- 0 1.0 5.0 2 16
+ 0.840573 5 3 ack 40 ------- 0 5.0 1.0 2 34
- 0.840573 5 3 ack 40 ------- 0 5.0 1.0 2 34
r 0.846576 5 3 ack 40 ------- 0 5.0 1.0 2 34
+ 0.846576 3 2 ack 40 ------- 0 5.0 1.0 2 34
- 0.846576 3 2 ack 40 ------- 0 5.0 1.0 2 34
r 0.850776 3 2 ack 40 ------- 0 5.0 1.0 2 34
+ 0.850776 2 1 ack 40 ------- 0 5.0 1.0 2 34
- 0.850776 2 1 ack 40 ------- 0 5.0 1.0 2 34
r 0.870779 2 1 ack 40 ------- 0 5.0 1.0 2 34
+ 0.870779 1 2 tcp 1000 ------- 0 1.0 5.0 4 35
- 0.870779 1 2 tcp 1000 ------- 0 1.0 5.0 4 35
r 0.890859 1 2 tcp 1000 ------- 0 1.0 5.0 4 35
+ 0.890859 2 3 tcp 1000 ------- 0 1.0 5.0 4 35
- 0.913493 2 3 tcp 1000 ------- 0 1.0 5.0 4 19
r 0.914493 2 3 tcp 1000 ------- 0 1.0 5.0 3 17
+ 0.914493 3 5 tcp 1000 ------- 0 1.0 5.0 3 17
- 0.914493 3 5 tcp 1000 ------- 0 1.0 5.0 3 17
r 0.920573 3 5 tcp 1000 ------- 0 1.0 5.0 3 17
+ 0.920573 5 3 ack 40 ------- 0 5.0 1.0 3 36
- 0.920573 5 3 ack 40 ------- 0 5.0 1.0 3 36
r 0.926576 5 3 ack 40 ------- 0 5.0 1.0 3 36
+ 0.926576 3 2 ack 40 ------- 0 5.0 1.0 3 36
- 0.926576 3 2 ack 40 ------- 0 5.0 1.0 3 36
r 0.930776 3 2 ack 40 ------- 0 5.0 1.0 3 36
+ 0.930776 2 1 ack 40 ------- 0 5.0 1.0 3 36
- 0.930776 2 1 ack 40 ------- 0 5.0 1.0 3 36
r 0.950779 2 1 ack 40 ------- 0 5.0 1.0 3 36
0.95078  1  0  5  0  ack_ 3
0.95078  1  0  5  0  cwnd_ 2.000 
+ 0.950779 1 2 tcp 1000 ------- 0 1.0 5.0 5 37
- 0.950779 1 2 tcp 1000 ------- 0 1.0 5.0 5 37
r 0.970859 1 2 tcp 1000 ------- 0 1.0 5.0 5 37
+ 0.970859 2 3 tcp 1000 ------- 0 1.0 5.0 5 37
- 0.993493 2 3 tcp 1000 ---A--- 0 0.0 4.0 3 20
r 0.994493 2 3 tcp 1000 ------- 0 1.0 5.0 4 19
+ 0.994493 3 5 tcp 1000 ------- 0 1.0 5.0 4 19
- 0.994493 3 5 tcp 1000 ------- 0 1.0 5.0 4 19
r 1.000573 3 5 tcp 1000 ------- 0 1.0 5.0 4 19
+ 1.000573 5 3 ack 40 ------- 0 5.0 1.0 4 38
- 1.000573 5 3 ack 40 ------- 0 5.0 1.0 4 38
r 1.006576 5 3 ack 40 ------- 0 5.0 1.0 4 38
+ 1.006576 3 2 ack 40 ------- 0 5.0 1.0 4 38
- 1.006576 3 2 ack 40 ------- 0 5.0 1.0 4 38
r 1.010776 3 2 ack 40 ------- 0 5.0 1.0 4 38
+ 1.010776 2 1 ack 40 ------- 0 5.0 1.0 4 38
- 1.010776 2 1 ack 40 ------- 0 5.0 1.0 4 38
r 1.030779 2 1 ack 40 ------- 0 5.0 1.0 4 38
1.03078  1  0  5  0  ack_ 4
1.03078  1  0  5  0  cwnd_ 2.500 
+ 1.030779 1 2 tcp 1000 ------- 0 1.0 5.0 6 39
- 1.030779 1 2 tcp 1000 ------- 0 1.0 5.0 6 39
1.03078  1  0  5  0  maxseq_ 6
r 1.050859 1 2 tcp 1000 ------- 0 1.0 5.0 6 39
+ 1.050859 2 3 tcp 1000 ------- 0 1.0 5.0 6 39
- 1.073493 2 3 tcp 1000 ------- 0 0.0 4.0 4 22
r 1.074493 2 3 tcp 1000 ---A--- 0 0.0 4.0 3 20
+ 1.074493 3 4 tcp 1000 ---A--- 0 0.0 4.0 3 20
- 1.074493 3 4 tcp 1000 ---A--- 0 0.0 4.0 3 20
r 1.079573 3 4 tcp 1000 ---A--- 0 0.0 4.0 3 20
+ 1.079573 4 3 ack 40 ------- 0 4.0 0.0 6 40
- 1.079573 4 3 ack 40 ------- 0 4.0 0.0 6 40
r 1.084576 4 3 ack 40 ------- 0 4.0 0.0 6 40
+ 1.084576 3 2 ack 40 ------- 0 4.0 0.0 6 40
- 1.084576 3 2 ack 40 ------- 0 4.0 0.0 6 40
r 1.088776 3 2 ack 40 ------- 0 4.0 0.0 6 40
+ 1.088776 2 0 ack 40 ------- 0 4.0 0.0 6 40
- 1.088776 2 0 ack 40 ------- 0 4.0 0.0 6 40
r 1.093779 2 0 ack 40 ------- 0 4.0 0.0 6 40
+ 1.093779 0 2 tcp 1000 ------- 0 0.0 4.0 10 41
- 1.093779 0 2 tcp 1000 ------- 0 0.0 4.0 10 41
1.09378  0  0  4  0  maxseq_ 10
1.09378  0  0  4  0  ssthresh_ 1
1.09378  0  0  4  0  cwnd_ 1.000 
1.09378  0  0  4  0  ssthresh_ 2
+ 1.093779 0 2 tcp 1000 ---A--- 0 0.0 4.0 7 42
- 1.093859 0 2 tcp 1000 ---A--- 0 0.0 4.0 7 42
r 1.098859 0 2 tcp 1000 ------- 0 0.0 4.0 10 41
+ 1.098859 2 3 tcp 1000 ------- 0 0.0 4.0 10 41
r 1.098939 0 2 tcp 1000 ---A--- 0 0.0 4.0 7 42
+ 1.098939 2 3 tcp 1000 ---A--- 0 0.0 4.0 7 42
d 1.098939 2 3 tcp 1000 ---A--- 0 0.0 4.0 7 42
- 1.153493 2 3 tcp 1000 ------- 0 0.0 4.0 5 23
r 1.154493 2 3 tcp 1000 ------- 0 0.0 4.0 4 22
+ 1.154493 3 4 tcp 1000 ------- 0 0.0 4.0 4 22
- 1.154493 3 4 tcp 1000 ------- 0 0.0 4.0 4 22
r 1.159573 3 4 tcp 1000 ------- 0 0.0 4.0 4 22
+ 1.159573 4 3 ack 40 ------- 0 4.0 0.0 6 43
- 1.159573 4 3 ack 40 ------- 0 4.0 0.0 6 43
r 1.164576 4 3 ack 40 ------- 0 4.0 0.0 6 43
+ 1.164576 3 2 ack 40 ------- 0 4.0 0.0 6 43
- 1.164576 3 2 ack 40 ------- 0 4.0 0.0 6 43
r 1.168776 3 2 ack 40 ------- 0 4.0 0.0 6 43
+ 1.168776 2 0 ack 40 ------- 0 4.0 0.0 6 43
- 1.168776 2 0 ack 40 ------- 0 4.0 0.0 6 43
r 1.173779 2 0 ack 40 ------- 0 4.0 0.0 6 43
+ 1.173779 0 2 tcp 1000 ------- 0 0.0 4.0 8 44
- 1.173779 0 2 tcp 1000 ------- 0 0.0 4.0 8 44
r 1.178859 0 2 tcp 1000 ------- 0 0.0 4.0 8 44
+ 1.178859 2 3 tcp 1000 ------- 0 0.0 4.0 8 44
- 1.233493 2 3 tcp 1000 ------- 0 0.0 4.0 6 25
r 1.234493 2 3 tcp 1000 ------- 0 0.0 4.0 5 23
+ 1.234493 3 4 tcp 1000 ------- 0 0.0 4.0 5 23
- 1.234493 3 4 tcp 1000 ------- 0 0.0 4.0 5 23
r 1.239573 3 4 tcp 1000 ------- 0 0.0 4.0 5 23
+ 1.239573 4 3 ack 40 ------- 0 4.0 0.0 6 45
- 1.239573 4 3 ack 40 ------- 0 4.0 0.0 6 45
r 1.244576 4 3 ack 40 ------- 0 4.0 0.0 6 45
+ 1.244576 3 2 ack 40 ------- 0 4.0 0.0 6 45
- 1.244576 3 2 ack 40 ------- 0 4.0 0.0 6 45
r 1.248776 3 2 ack 40 ------- 0 4.0 0.0 6 45
+ 1.248776 2 0 ack 40 ------- 0 4.0 0.0 6 45
- 1.248776 2 0 ack 40 ------- 0 4.0 0.0 6 45
r 1.253779 2 0 ack 40 ------- 0 4.0 0.0 6 45
+ 1.253779 0 2 tcp 1000 ------- 0 0.0 4.0 9 46
- 1.253779 0 2 tcp 1000 ------- 0 0.0 4.0 9 46
r 1.258859 0 2 tcp 1000 ------- 0 0.0 4.0 9 46
+ 1.258859 2 3 tcp 1000 ------- 0 0.0 4.0 9 46
- 1.313493 2 3 tcp 1000 ------- 0 0.0 4.0 7 27
r 1.314493 2 3 tcp 1000 ------- 0 0.0 4.0 6 25
+ 1.314493 3 4 tcp 1000 ------- 0 0.0 4.0 6 25
- 1.314493 3 4 tcp 1000 ------- 0 0.0 4.0 6 25
r 1.319573 3 4 tcp 1000 ------- 0 0.0 4.0 6 25
+ 1.319573 4 3 ack 40 ------- 0 4.0 0.0 6 47
- 1.319573 4 3 ack 40 ------- 0 4.0 0.0 6 47
r 1.324576 4 3 ack 40 ------- 0 4.0 0.0 6 47
+ 1.324576 3 2 ack 40 ------- 0 4.0 0.0 6 47
- 1.324576 3 2 ack 40 ------- 0 4.0 0.0 6 47
r 1.328776 3 2 ack 40 ------- 0 4.0 0.0 6 47
+ 1.328776 2 0 ack 40 ------- 0 4.0 0.0 6 47
- 1.328776 2 0 ack 40 ------- 0 4.0 0.0 6 47
r 1.333779 2 0 ack 40 ------- 0 4.0 0.0 6 47
- 1.393493 2 3 tcp 1000 ------- 0 0.0 4.0 8 29
r 1.394493 2 3 tcp 1000 ------- 0 0.0 4.0 7 27
+ 1.394493 3 4 tcp 1000 ------- 0 0.0 4.0 7 27
- 1.394493 3 4 tcp 1000 ------- 0 0.0 4.0 7 27
r 1.399573 3 4 tcp 1000 ------- 0 0.0 4.0 7 27
+ 1.399573 4 3 ack 40 ------- 0 4.0 0.0 7 48
- 1.399573 4 3 ack 40 ------- 0 4.0 0.0 7 48
r 1.404576 4 3 ack 40 ------- 0 4.0 0.0 7 48
+ 1.404576 3 2 ack 40 ------- 0 4.0 0.0 7 48
- 1.404576 3 2 ack 40 ------- 0 4.0 0.0 7 48
r 1.408776 3 2 ack 40 ------- 0 4.0 0.0 7 48
+ 1.408776 2 0 ack 40 ------- 0 4.0 0.0 7 48
- 1.408776 2 0 ack 40 ------- 0 4.0 0.0 7 48
r 1.413779 2 0 ack 40 ------- 0 4.0 0.0 7 48
1.41378  0  0  4  0  ack_ 7
1.41378  0  0  4  0  cwnd_ 2.000 
- 1.473493 2 3 tcp 1000 ------- 0 1.0 5.0 5 32
r 1.474493 2 3 tcp 1000 ------- 0 0.0 4.0 8 29
+ 1.474493 3 4 tcp 1000 ------- 0 0.0 4.0 8 29
- 1.474493 3 4 tcp 1000 ------- 0 0.0 4.0 8 29
r 1.479573 3 4 tcp 1000 ------- 0 0.0 4.0 8 29
+ 1.479573 4 3 ack 40 ------- 0 4.0 0.0 8 49
- 1.479573 4 3 ack 40 ------- 0 4.0 0.0 8 49
r 1.484576 4 3 ack 40 ------- 0 4.0 0.0 8 49
+ 1.484576 3 2 ack 40 ------- 0 4.0 0.0 8 49
- 1.484576 3 2 ack 40 ------- 0 4.0 0.0 8 49
r 1.488776 3 2 ack 40 ------- 0 4.0 0.0 8 49
+ 1.488776 2 0 ack 40 ------- 0 4.0 0.0 8 49
- 1.488776 2 0 ack 40 ------- 0 4.0 0.0 8 49
r 1.493779 2 0 ack 40 ------- 0 4.0 0.0 8 49
1.49378  0  0  4  0  ack_ 8
1.49378  0  0  4  0  cwnd_ 2.500 
+ 1.493779 0 2 tcp 1000 ------- 0 0.0 4.0 10 50
- 1.493779 0 2 tcp 1000 ------- 0 0.0 4.0 10 50
r 1.498859 0 2 tcp 1000 ------- 0 0.0 4.0 10 50
+ 1.498859 2 3 tcp 1000 ------- 0 0.0 4.0 10 50
- 1.553493 2 3 tcp 1000 ------- 0 1.0 5.0 4 35
r 1.554493 2 3 tcp 1000 ------- 0 1.0 5.0 5 32
+ 1.554493 3 5 tcp 1000 ------- 0 1.0 5.0 5 32
- 1.554493 3 5 tcp 1000 ------- 0 1.0 5.0 5 32
r 1.560573 3 5 tcp 1000 ------- 0 1.0 5.0 5 32
+ 1.560573 5 3 ack 40 ------- 0 5.0 1.0 5 51
- 1.560573 5 3 ack 40 ------- 0 5.0 1.0 5 51
r 1.566576 5 3 ack 40 ------- 0 5.0 1.0 5 51
+ 1.566576 3 2 ack 40 ------- 0 5.0 1.0 5 51
- 1.566576 3 2 ack 40 ------- 0 5.0 1.0 5 51
r 1.570776 3 2 ack 40 ------- 0 5.0 1.0 5 51
+ 1.570776 2 1 ack 40 ------- 0 5.0 1.0 5 51
- 1.570776 2 1 ack 40 ------- 0 5.0 1.0 5 51
r 1.590779 2 1 ack 40 ------- 0 5.0 1.0 5 51
1.59078  1  0  5  0  ack_ 5
1.59078  1  0  5  0  cwnd_ 2.900 
+ 1.590779 1 2 tcp 1000 ------- 0 1.0 5.0 7 52
- 1.590779 1 2 tcp 1000 ------- 0 1.0 5.0 7 52
1.59078  1  0  5  0  maxseq_ 7
r 1.610859 1 2 tcp 1000 ------- 0 1.0 5.0 7 52
+ 1.610859 2 3 tcp 1000 ------- 0 1.0 5.0 7 52
- 1.633493 2 3 tcp 1000 ------- 0 1.0 5.0 5 37
r 1.634493 2 3 tcp 1000 ------- 0 1.0 5.0 4 35
+ 1.634493 3 5 tcp 1000 ------- 0 1.0 5.0 4 35
- 1.634493 3 5 tcp 1000 ------- 0 1.0 5.0 4 35
r 1.640573 3 5 tcp 1000 ------- 0 1.0 5.0 4 35
+ 1.640573 5 3 ack 40 ------- 0 5.0 1.0 5 53
- 1.640573 5 3 ack 40 ------- 0 5.0 1.0 5 53
r 1.646576 5 3 ack 40 ------- 0 5.0 1.0 5 53
+ 1.646576 3 2 ack 40 ------- 0 5.0 1.0 5 53
- 1.646576 3 2 ack 40 ------- 0 5.0 1.0 5 53
r 1.650776 3 2 ack 40 ------- 0 5.0 1.0 5 53
+ 1.650776 2 1 ack 40 ------- 0 5.0 1.0 5 53
- 1.650776 2 1 ack 40 ------- 0 5.0 1.0 5 53
r 1.670779 2 1 ack 40 ------- 0 5.0 1.0 5 53
+ 1.670779 1 2 tcp 1000 ------- 0 1.0 5.0 8 54
- 1.670779 1 2 tcp 1000 ------- 0 1.0 5.0 8 54
1.67078  1  0  5  0  maxseq_ 8
r 1.690859 1 2 tcp 1000 ------- 0 1.0 5.0 8 54
+ 1.690859 2 3 tcp 1000 ------- 0 1.0 5.0 8 54
- 1.713493 2 3 tcp 1000 ------- 0 1.0 5.0 6 39
r 1.714493 2 3 tcp 1000 ------- 0 1.0 5.0 5 37
+ 1.714493 3 5 tcp 1000 ------- 0 1.0 5.0 5 37
- 1.714493 3 5 tcp 1000 ------- 0 1.0 5.0 5 37
r 1.720573 3 5 tcp 1000 ------- 0 1.0 5.0 5 37
+ 1.720573 5 3 ack 40 ------- 0 5.0 1.0 5 55
- 1.720573 5 3 ack 40 ------- 0 5.0 1.0 5 55
r 1.726576 5 3 ack 40 ------- 0 5.0 1.0 5 55
+ 1.726576 3 2 ack 40 ------- 0 5.0 1.0 5 55
- 1.726576 3 2 ack 40 ------- 0 5.0 1.0 5 55
r 1.730776 3 2 ack 40 ------- 0 5.0 1.0 5 55
+ 1.730776 2 1 ack 40 ------- 0 5.0 1.0 5 55
- 1.730776 2 1 ack 40 ------- 0 5.0 1.0 5 55
r 1.750779 2 1 ack 40 ------- 0 5.0 1.0 5 55
+ 1.750779 1 2 tcp 1000 ------- 0 1.0 5.0 9 56
- 1.750779 1 2 tcp 1000 ------- 0 1.0 5.0 9 56
1.75078  1  0  5  0  maxseq_ 9
r 1.770859 1 2 tcp 1000 ------- 0 1.0 5.0 9 56
+ 1.770859 2 3 tcp 1000 ------- 0 1.0 5.0 9 56
- 1.793493 2 3 tcp 1000 ------- 0 0.0 4.0 10 41
r 1.794493 2 3 tcp 1000 ------- 0 1.0 5.0 6 39
+ 1.794493 3 5 tcp 1000 ------- 0 1.0 5.0 6 39
- 1.794493 3 5 tcp 1000 ------- 0 1.0 5.0 6 39
r 1.800573 3 5 tcp 1000 ------- 0 1.0 5.0 6 39
+ 1.800573 5 3 ack 40 ------- 0 5.0 1.0 6 57
- 1.800573 5 3 ack 40 ------- 0 5.0 1.0 6 57
r 1.806576 5 3 ack 40 ------- 0 5.0 1.0 6 57
+ 1.806576 3 2 ack 40 ------- 0 5.0 1.0 6 57
- 1.806576 3 2 ack 40 ------- 0 5.0 1.0 6 57
r 1.810776 3 2 ack 40 ------- 0 5.0 1.0 6 57
+ 1.810776 2 1 ack 40 ------- 0 5.0 1.0 6 57
- 1.810776 2 1 ack 40 ------- 0 5.0 1.0 6 57
r 1.830779 2 1 ack 40 ------- 0 5.0 1.0 6 57
1.83078  1  0  5  0  ack_ 6
1.83078  1  0  5  0  cwnd_ 3.245 
- 1.873493 2 3 tcp 1000 ------- 0 0.0 4.0 8 44
r 1.874493 2 3 tcp 1000 ------- 0 0.0 4.0 10 41
+ 1.874493 3 4 tcp 1000 ------- 0 0.0 4.0 10 41
- 1.874493 3 4 tcp 1000 ------- 0 0.0 4.0 10 41
r 1.879573 3 4 tcp 1000 ------- 0 0.0 4.0 10 41
+ 1.879573 4 3 ack 40 ------- 0 4.0 0.0 8 58
- 1.879573 4 3 ack 40 ------- 0 4.0 0.0 8 58
r 1.884576 4 3 ack 40 ------- 0 4.0 0.0 8 58
+ 1.884576 3 2 ack 40 ------- 0 4.0 0.0 8 58
- 1.884576 3 2 ack 40 ------- 0 4.0 0.0 8 58
r 1.888776 3 2 ack 40 ------- 0 4.0 0.0 8 58
+ 1.888776 2 0 ack 40 ------- 0 4.0 0.0 8 58
- 1.888776 2 0 ack 40 ------- 0 4.0 0.0 8 58
r 1.893779 2 0 ack 40 ------- 0 4.0 0.0 8 58
+ 1.893779 0 2 tcp 1000 ------- 0 0.0 4.0 11 59
- 1.893779 0 2 tcp 1000 ------- 0 0.0 4.0 11 59
1.89378  0  0  4  0  maxseq_ 11
r 1.898859 0 2 tcp 1000 ------- 0 0.0 4.0 11 59
+ 1.898859 2 3 tcp 1000 ------- 0 0.0 4.0 11 59
- 1.953493 2 3 tcp 1000 ------- 0 0.0 4.0 9 46
r 1.954493 2 3 tcp 1000 ------- 0 0.0 4.0 8 44
+ 1.954493 3 4 tcp 1000 ------- 0 0.0 4.0 8 44
- 1.954493 3 4 tcp 1000 ------- 0 0.0 4.0 8 44
r 1.959573 3 4 tcp 1000 ------- 0 0.0 4.0 8 44
+ 1.959573 4 3 ack 40 ------- 0 4.0 0.0 8 60
- 1.959573 4 3 ack 40 ------- 0 4.0 0.0 8 60
r 1.964576 4 3 ack 40 ------- 0 4.0 0.0 8 60
+ 1.964576 3 2 ack 40 ------- 0 4.0 0.0 8 60
- 1.964576 3 2 ack 40 ------- 0 4.0 0.0 8 60
r 1.968776 3 2 ack 40 ------- 0 4.0 0.0 8 60
+ 1.968776 2 0 ack 40 ------- 0 4.0 0.0 8 60
- 1.968776 2 0 ack 40 ------- 0 4.0 0.0 8 60
r 1.973779 2 0 ack 40 ------- 0 4.0 0.0 8 60
+ 1.973779 0 2 tcp 1000 ------- 0 0.0 4.0 12 61
- 1.973779 0 2 tcp 1000 ------- 0 0.0 4.0 12 61
1.97378  0  0  4  0  maxseq_ 12
r 1.978859 0 2 tcp 1000 ------- 0 0.0 4.0 12 61
+ 1.978859 2 3 tcp 1000 ------- 0 0.0 4.0 12 61
- 2.033493 2 3 tcp 1000 ------- 0 0.0 4.0 10 50
r 2.034493 2 3 tcp 1000 ------- 0 0.0 4.0 9 46
+ 2.034493 3 4 tcp 1000 ------- 0 0.0 4.0 9 46
- 2.034493 3 4 tcp 1000 ------- 0 0.0 4.0 9 46
r 2.039573 3 4 tcp 1000 ------- 0 0.0 4.0 9 46
+ 2.039573 4 3 ack 40 ------- 0 4.0 0.0 10 62
- 2.039573 4 3 ack 40 ------- 0 4.0 0.0 10 62
r 2.044576 4 3 ack 40 ------- 0 4.0 0.0 10 62
+ 2.044576 3 2 ack 40 ------- 0 4.0 0.0 10 62
- 2.044576 3 2 ack 40 ------- 0 4.0 0.0 10 62
r 2.048776 3 2 ack 40 ------- 0 4.0 0.0 10 62
+ 2.048776 2 0 ack 40 ------- 0 4.0 0.0 10 62
- 2.048776 2 0 ack 40 ------- 0 4.0 0.0 10 62
r 2.053779 2 0 ack 40 ------- 0 4.0 0.0 10 62
2.05378  0  0  4  0  ack_ 10
2.05378  0  0  4  0  cwnd_ 2.900 
- 2.113493 2 3 tcp 1000 ------- 0 1.0 5.0 7 52
r 2.114493 2 3 tcp 1000 ------- 0 0.0 4.0 10 50
+ 2.114493 3 4 tcp 1000 ------- 0 0.0 4.0 10 50
- 2.114493 3 4 tcp 1000 ------- 0 0.0 4.0 10 50
r 2.119573 3 4 tcp 1000 ------- 0 0.0 4.0 10 50
+ 2.119573 4 3 ack 40 ------- 0 4.0 0.0 10 63
- 2.119573 4 3 ack 40 ------- 0 4.0 0.0 10 63
r 2.124576 4 3 ack 40 ------- 0 4.0 0.0 10 63
+ 2.124576 3 2 ack 40 ------- 0 4.0 0.0 10 63
- 2.124576 3 2 ack 40 ------- 0 4.0 0.0 10 63
r 2.128776 3 2 ack 40 ------- 0 4.0 0.0 10 63
+ 2.128776 2 0 ack 40 ------- 0 4.0 0.0 10 63
- 2.128776 2 0 ack 40 ------- 0 4.0 0.0 10 63
r 2.133779 2 0 ack 40 ------- 0 4.0 0.0 10 63
+ 2.133779 0 2 tcp 1000 ------- 0 0.0 4.0 13 64
- 2.133779 0 2 tcp 1000 ------- 0 0.0 4.0 13 64
2.13378  0  0  4  0  maxseq_ 13
r 2.138859 0 2 tcp 1000 ------- 0 0.0 4.0 13 64
+ 2.138859 2 3 tcp 1000 ------- 0 0.0 4.0 13 64
- 2.193493 2 3 tcp 1000 ------- 0 1.0 5.0 8 54
r 2.194493 2 3 tcp 1000 ------- 0 1.0 5.0 7 52
+ 2.194493 3 5 tcp 1000 ------- 0 1.0 5.0 7 52
- 2.194493 3 5 tcp 1000 ------- 0 1.0 5.0 7 52
r 2.200573 3 5 tcp 1000 ------- 0 1.0 5.0 7 52
+ 2.200573 5 3 ack 40 ------- 0 5.0 1.0 7 65
- 2.200573 5 3 ack 40 ------- 0 5.0 1.0 7 65
r 2.206576 5 3 ack 40 ------- 0 5.0 1.0 7 65
+ 2.206576 3 2 ack 40 ------- 0 5.0 1.0 7 65
- 2.206576 3 2 ack 40 ------- 0 5.0 1.0 7 65
r 2.210776 3 2 ack 40 ------- 0 5.0 1.0 7 65
+ 2.210776 2 1 ack 40 ------- 0 5.0 1.0 7 65
- 2.210776 2 1 ack 40 ------- 0 5.0 1.0 7 65
r 2.230779 2 1 ack 40 ------- 0 5.0 1.0 7 65
2.23078  1  0  5  0  ack_ 7
2.23078  1  0  5  0  cwnd_ 3.553 
+ 2.230779 1 2 tcp 1000 ------- 0 1.0 5.0 10 66
- 2.230779 1 2 tcp 1000 ------- 0 1.0 5.0 10 66
2.23078  1  0  5  0  maxseq_ 10
r 2.250859 1 2 tcp 1000 ------- 0 1.0 5.0 10 66
+ 2.250859 2 3 tcp 1000 ------- 0 1.0 5.0 10 66
- 2.273493 2 3 tcp 1000 ------- 0 1.0 5.0 9 56
r 2.274493 2 3 tcp 1000 ------- 0 1.0 5.0 8 54
+ 2.274493 3 5 tcp 1000 ------- 0 1.0 5.0 8 54
- 2.274493 3 5 tcp 1000 ------- 0 1.0 5.0 8 54
r 2.280573 3 5 tcp 1000 ------- 0 1.0 5.0 8 54
+ 2.280573 5 3 ack 40 ------- 0 5.0 1.0 8 67
- 2.280573 5 3 ack 40 ------- 0 5.0 1.0 8 67
r 2.286576 5 3 ack 40 ------- 0 5.0 1.0 8 67
+ 2.286576 3 2 ack 40 ------- 0 5.0 1.0 8 67
- 2.286576 3 2 ack 40 ------- 0 5.0 1.0 8 67
r 2.290776 3 2 ack 40 ------- 0 5.0 1.0 8 67
+ 2.290776 2 1 ack 40 ------- 0 5.0 1.0 8 67
- 2.290776 2 1 ack 40 ------- 0 5.0 1.0 8 67
r 2.310779 2 1 ack 40 ------- 0 5.0 1.0 8 67
2.31078  1  0  5  0  ack_ 8
2.31078  1  0  5  0  cwnd_ 3.834 
+ 2.310779 1 2 tcp 1000 ------- 0 1.0 5.0 11 68
- 2.310779 1 2 tcp 1000 ------- 0 1.0 5.0 11 68
2.31078  1  0  5  0  maxseq_ 11
r 2.330859 1 2 tcp 1000 ------- 0 1.0 5.0 11 68
+ 2.330859 2 3 tcp 1000 ------- 0 1.0 5.0 11 68
- 2.353493 2 3 tcp 1000 ------- 0 0.0 4.0 11 59
r 2.354493 2 3 tcp 1000 ------- 0 1.0 5.0 9 56
+ 2.354493 3 5 tcp 1000 ------- 0 1.0 5.0 9 56
- 2.354493 3 5 tcp 1000 ------- 0 1.0 5.0 9 56
r 2.360573 3 5 tcp 1000 ------- 0 1.0 5.0 9 56
+ 2.360573 5 3 ack 40 ------- 0 5.0 1.0 9 69
- 2.360573 5 3 ack 40 ------- 0 5.0 1.0 9 69
r 2.366576 5 3 ack 40 ------- 0 5.0 1.0 9 69
+ 2.366576 3 2 ack 40 ------- 0 5.0 1.0 9 69
- 2.366576 3 2 ack 40 ------- 0 5.0 1.0 9 69
r 2.370776 3 2 ack 40 ------- 0 5.0 1.0 9 69
+ 2.370776 2 1 ack 40 ------- 0 5.0 1.0 9 69
- 2.370776 2 1 ack 40 ------- 0 5.0 1.0 9 69
r 2.390779 2 1 ack 40 ------- 0 5.0 1.0 9 69
2.39078  1  0  5  0  ack_ 9
2.39078  1  0  5  0  cwnd_ 4.095 
+ 2.390779 1 2 tcp 1000 ------- 0 1.0 5.0 12 70